/*--------------------------------*- C++ -*----------------------------------*\
| =========                 |                                                 |
| \\      /  F ield         | OpenFOAM: The Open Source CFD Toolbox           |
|  \\    /   O peration     | Version:  2112                                  |
|   \\  /    A nd           | Website:  www.openfoam.com                      |
|    \\/     M anipulation  |                                                 |
\*---------------------------------------------------------------------------*/
FoamFile
{
    version     2.0;
    format      ascii;
    arch        "LSB;label=32;scalar=64";
    class       volScalarField;
    location    "0";
    object      error_U;
}
// * * * * * * * * * * * * * * * * * * * * * * * * * * * * * * * * * * * * * //

dimensions      [0 1 -1 0 0 0 0];

internalField   nonuniform List<scalar> 
2000
(
0.284198
0.182694
0.115119
0.0697435
0.039269
0.0196454
0.0110564
0.0137257
0.0184103
0.0218076
0.287646
0.180982
0.109314
0.0607305
0.0276965
0.00654413
0.0118494
0.0216009
0.0278756
0.0313248
0.298463
0.185977
0.110198
0.0594852
0.028048
0.0191772
0.0272887
0.0356039
0.0410756
0.0439686
0.316846
0.19836
0.118932
0.067767
0.0408859
0.0368659
0.0434435
0.050196
0.0546696
0.0569184
0.341308
0.216374
0.132967
0.080713
0.0552695
0.05139
0.0565888
0.0622025
0.0657752
0.0671188
0.368856
0.236431
0.147519
0.0917896
0.0645779
0.0596984
0.0643985
0.069753
0.0729896
0.0737453
0.395611
0.254209
0.15774
0.0959104
0.0649059
0.0598971
0.0661989
0.072848
0.0766546
0.077328
0.417586
0.265786
0.15991
0.0897917
0.0542281
0.0531132
0.064814
0.0744402
0.0793124
0.0798291
0.431286
0.268367
0.152281
0.0727143
0.0341123
0.0477909
0.0677318
0.0798297
0.0845535
0.0836348
0.434331
0.260889
0.135745
0.0479657
0.0218651
0.0577854
0.0804989
0.0911475
0.092955
0.0886895
0.583377
0.429599
0.318216
0.239693
0.18673
0.152934
0.13231
0.119644
0.111136
0.104507
0.505137
0.360239
0.255848
0.182376
0.132988
0.102156
0.0845857
0.0750916
0.0695173
0.0653521
0.442839
0.3071
0.209832
0.141151
0.0942924
0.0644635
0.0477693
0.0399753
0.0366143
0.0345817
0.395312
0.269025
0.179439
0.116303
0.0725727
0.0432743
0.0249717
0.0154422
0.0123551
0.0119782
0.360428
0.243462
0.16188
0.105215
0.0663499
0.0402562
0.0233116
0.0129615
0.00770477
0.00675733
0.335376
0.226776
0.152545
0.101999
0.0679778
0.0455004
0.0310214
0.0220482
0.0169796
0.0149719
0.317261
0.215191
0.146658
0.100659
0.0699022
0.0494033
0.0357378
0.026655
0.0208772
0.0179653
0.303764
0.205779
0.140778
0.0974659
0.068469
0.0489029
0.0355508
0.0263538
0.0200645
0.0160872
0.293607
0.196998
0.133261
0.0909086
0.0625803
0.0435597
0.0308584
0.0225539
0.0171521
0.0129592
0.286734
0.188831
0.124151
0.0810984
0.0523914
0.0335929
0.0222522
0.0170574
0.0162044
0.0173285
0.0985294
0.0940088
0.0891767
0.0840284
0.0786285
0.0730624
0.0674097
0.0617371
0.0560942
0.0505125
0.0450093
0.0395892
0.0342488
0.0289846
0.0237922
0.0186868
0.0137262
0.009143
0.00596343
0.00679149
0.0621914
0.0609473
0.0589025
0.05616
0.0528866
0.0492417
0.0453577
0.0413363
0.0372469
0.0331344
0.0290261
0.0249367
0.0208857
0.0169043
0.0130733
0.00961853
0.00719616
0.0071044
0.00953382
0.0132664
0.0337391
0.0350631
0.0351902
0.0343474
0.0328128
0.0308123
0.0285182
0.0260522
0.0234957
0.0209081
0.0183471
0.0158916
0.0136696
0.0118971
0.0108953
0.0109808
0.0122284
0.0144267
0.0172989
0.0206428
0.0132306
0.0163316
0.0180149
0.0186804
0.0186863
0.0182824
0.0176321
0.016843
0.0159978
0.0151797
0.0144893
0.0140463
0.0139761
0.0143815
0.0153128
0.0167593
0.0186694
0.0209782
0.0236254
0.0265659
0.00797959
0.00854125
0.00982493
0.011244
0.0124536
0.0133912
0.0140798
0.014585
0.0149939
0.0154024
0.0159026
0.016574
0.0174742
0.0186365
0.020071
0.0217722
0.0237257
0.0259144
0.0283224
0.0309394
0.0145289
0.0125736
0.0119591
0.0125825
0.0135051
0.014363
0.0151095
0.0158035
0.0165213
0.0173271
0.0182642
0.0193591
0.0206216
0.0220508
0.0236427
0.0253907
0.0272916
0.0293422
0.0315444
0.0338998
0.0169424
0.0155071
0.0147502
0.0146937
0.0148309
0.0151343
0.0156479
0.0163889
0.0173467
0.0184931
0.0197935
0.0212152
0.0227315
0.0243258
0.0259922
0.0277322
0.0295524
0.0314629
0.0334777
0.0356096
0.0143397
0.0143786
0.0137503
0.0130147
0.012805
0.0132422
0.0142089
0.0155495
0.0171225
0.0188155
0.0205477
0.022273
0.0239741
0.025651
0.0273165
0.0289905
0.0306959
0.0324542
0.0342884
0.0362184
0.0100946
0.00967254
0.00899371
0.00844985
0.00888584
0.0102888
0.0123034
0.0145613
0.0168243
0.0189749
0.0209732
0.0228213
0.0245434
0.0261719
0.027743
0.0292929
0.0308545
0.0324549
0.0341191
0.035866
0.0167149
0.0118109
0.0102845
0.0099202
0.0107751
0.0124449
0.014381
0.0163157
0.0181543
0.0198749
0.0214853
0.0230055
0.0244606
0.0258756
0.0272759
0.028682
0.0301142
0.0315876
0.0331133
0.0347023
0.0226383
0.0216204
0.0227184
0.023599
0.0236885
0.0233941
0.0230697
0.0228927
0.02292
0.0231517
0.0235686
0.0241487
0.0248732
0.025727
0.026697
0.0277702
0.028937
0.0301869
0.0315161
0.0329233
0.0221609
0.0220437
0.0220796
0.022184
0.022074
0.0218141
0.0215665
0.0214404
0.0214875
0.0217149
0.0221155
0.0226701
0.0233624
0.0241757
0.025093
0.0261007
0.0271856
0.0283392
0.0295556
0.030837
0.0248025
0.0232585
0.0220351
0.0211837
0.0205402
0.0200371
0.0196827
0.0195117
0.0195304
0.0197386
0.0201165
0.0206533
0.0213274
0.022117
0.0230042
0.0239719
0.0250054
0.0260938
0.0272348
0.02843
0.02826
0.0246824
0.0220773
0.0202283
0.0189434
0.0180687
0.0175183
0.0172342
0.0171918
0.0173606
0.017715
0.0182369
0.018902
0.0196833
0.0205562
0.0215117
0.0225172
0.0235736
0.024674
0.025827
0.0301688
0.0253164
0.0216776
0.0190329
0.0171661
0.0159146
0.0151375
0.0147179
0.0145942
0.0147151
0.0150496
0.0155556
0.0162209
0.0170034
0.0178843
0.0188364
0.0198475
0.020899
0.0220035
0.0231623
0.030069
0.024722
0.0205518
0.0174046
0.0151384
0.0135939
0.0126143
0.0120779
0.0118826
0.0119534
0.012251
0.012747
0.013399
0.0142
0.015101
0.0160819
0.0171225
0.0182133
0.0193629
0.0205809
0.0283013
0.0229909
0.0186783
0.0153419
0.0128834
0.0111809
0.0101008
0.009483
0.00921409
0.0092305
0.00948151
0.00994529
0.0106023
0.0114159
0.0123474
0.0133824
0.0144877
0.0156627
0.0169143
0.0182615
0.0253648
0.0203803
0.0162498
0.0129895
0.0105718
0.00891017
0.0078531
0.0072362
0.00692513
0.00685978
0.00701627
0.00741027
0.00802808
0.00884978
0.00982634
0.0109364
0.012147
0.0134473
0.0148548
0.0163972
0.0217423
0.0172741
0.0135526
0.0106481
0.00857806
0.00723846
0.00644374
0.00596779
0.00565575
0.00545851
0.00541499
0.00560248
0.00607629
0.00683285
0.00782892
0.0090092
0.0103358
0.0117976
0.0134044
0.015191
0.0178898
0.0141179
0.011059
0.00886564
0.00753494
0.00687708
0.00657753
0.0063649
0.00609562
0.005765
0.00544541
0.00527503
0.00539919
0.00590628
0.00678045
0.00795022
0.00935071
0.0109504
0.01275
0.0147791
0.0143453
0.0114994
0.00947119
0.00837917
0.00804426
0.00809475
0.00818463
0.00813255
0.0078833
0.00745817
0.0069505
0.00649571
0.00625504
0.00639131
0.00697678
0.00798895
0.00934731
0.0110058
0.0129386
0.0151611
0.0118593
0.0102535
0.0095198
0.00952731
0.00990575
0.0103115
0.0105401
0.0105146
0.0102156
0.00970286
0.00907354
0.00844427
0.00798007
0.00784377
0.0081501
0.00894357
0.0101867
0.0118265
0.0138284
0.0161884
0.0113139
0.0109644
0.0112269
0.0118311
0.0124746
0.0129486
0.0131508
0.0130417
0.0126459
0.0120357
0.0112918
0.0105547
0.00995265
0.00964487
0.00976914
0.0103946
0.0115324
0.0131396
0.0151808
0.0176459
0.0129129
0.0132746
0.0139346
0.0146809
0.0153071
0.015691
0.015764
0.0155226
0.0149964
0.0142652
0.0134225
0.0125708
0.0118649
0.0114524
0.011468
0.0120004
0.0130747
0.0146763
0.0167669
0.0193381
0.0159166
0.0164275
0.0170853
0.0177177
0.0181782
0.0183796
0.0182612
0.0178533
0.0171765
0.0163072
0.0153337
0.0143909
0.0135976
0.0131133
0.013069
0.0135571
0.01462
0.0162514
0.018421
0.0211069
0.0195826
0.0199365
0.02039
0.0207802
0.0209919
0.0209444
0.0206108
0.0199958
0.0191367
0.0181069
0.0170013
0.0159509
0.0150808
0.014538
0.0144611
0.0149508
0.0160505
0.0177489
0.0200224
0.0228568
0.0235387
0.0235862
0.0237142
0.0237877
0.0236965
0.0233673
0.0227765
0.0219191
0.0208591
0.0196491
0.0183915
0.0172165
0.0162682
0.0156757
0.0155954
0.016118
0.0172918
0.0191006
0.0215159
0.0245136
0.0276164
0.0272832
0.0270295
0.0267363
0.0262924
0.0256381
0.0247517
0.0236378
0.0223313
0.0209212
0.0195007
0.0181923
0.0171437
0.0165159
0.0164493
0.0170328
0.018315
0.0202696
0.0228589
0.0260523
0.0317754
0.0310002
0.030326
0.0296171
0.0287933
0.027791
0.0265725
0.0251602
0.0235893
0.0219488
0.0203246
0.0188713
0.0177165
0.0170478
0.0170027
0.0176826
0.0191072
0.0212422
0.0240367
0.0274521
0.0360222
0.0347679
0.0336253
0.0324809
0.0312356
0.029837
0.0282585
0.0265147
0.0246505
0.0227382
0.0208946
0.0192632
0.0179929
0.0172762
0.017276
0.0180721
0.0196734
0.0220229
0.0250526
0.0287144
0.0813658
0.0795579
0.0772793
0.0747833
0.0709106
0.0646554
0.0560514
0.0464187
0.0389601
0.0316763
0.0708106
0.0718549
0.0716999
0.0702152
0.0665288
0.0599759
0.0507607
0.0408667
0.0342125
0.0283417
0.0592844
0.062375
0.0641691
0.0641236
0.06162
0.0566451
0.0501873
0.0442122
0.0392701
0.0313728
0.0477365
0.0521521
0.0556216
0.0572508
0.0565336
0.0538773
0.0503935
0.0469838
0.0422022
0.0338193
0.0367808
0.0418704
0.0466977
0.049992
0.0511913
0.0506582
0.0491679
0.0467634
0.041952
0.034567
0.0268756
0.0319555
0.0377358
0.0424555
0.045287
0.0463499
0.046004
0.0440293
0.039597
0.0336504
0.0185465
0.0227013
0.0289875
0.0347874
0.0388602
0.0410323
0.041377
0.0397412
0.0359679
0.0313499
0.0130056
0.0145079
0.0206987
0.027212
0.0321652
0.0350817
0.0359098
0.0346382
0.0315858
0.0280042
0.0123904
0.0087586
0.0133822
0.0201521
0.0256104
0.0289904
0.0301489
0.0292481
0.0268119
0.0239863
0.0161662
0.00921855
0.00871498
0.0143732
0.0197697
0.0232741
0.024606
0.0239974
0.0220224
0.0196888
0.0215809
0.0144865
0.0100269
0.0115608
0.015557
0.0186029
0.0198335
0.0193378
0.0176498
0.0156076
0.0273475
0.0207575
0.0153152
0.0132326
0.0142862
0.0159275
0.016576
0.015942
0.014341
0.0124422
0.0331039
0.0270753
0.0215048
0.0178131
0.0163565
0.0160693
0.015677
0.014624
0.0129878
0.0112251
0.0387546
0.0332426
0.0277753
0.0234086
0.0205368
0.0187454
0.0173057
0.0157624
0.0140712
0.0125047
0.044305
0.0392677
0.0339647
0.029288
0.0256446
0.0229124
0.020716
0.0187719
0.0170149
0.0155717
0.0498014
0.0451705
0.0400574
0.0352385
0.0311335
0.0278068
0.0250862
0.0228194
0.0209438
0.0195091
0.055282
0.0510133
0.0460765
0.0411875
0.0367986
0.0330559
0.029947
0.0273902
0.0253501
0.0238108
0.0607978
0.0568452
0.0520799
0.0471572
0.0425605
0.0385106
0.0350822
0.0322505
0.0300067
0.0282908
0.0663813
0.0627254
0.058115
0.0531904
0.0484347
0.0441309
0.0404147
0.0373236
0.0348279
0.0328781
0.0720843
0.0686941
0.0642315
0.0593178
0.054438
0.0499232
0.0459606
0.0425991
0.0398297
0.0375917
0.0675906
0.0677471
0.0656435
0.0611669
0.0545919
0.0473848
0.043609
0.0512712
0.0830135
0.159637
0.0842722
0.0842288
0.0813812
0.0750854
0.0651507
0.052603
0.0421671
0.0490353
0.0925608
0.188051
0.0905104
0.0902533
0.0873427
0.0808212
0.0700571
0.0548902
0.0370385
0.0387817
0.0970636
0.214423
0.0818491
0.0821794
0.0802963
0.0756602
0.0674791
0.0538787
0.0308238
0.0242693
0.10284
0.241838
0.0631855
0.0651488
0.0668711
0.0679576
0.0665234
0.0579141
0.0339184
0.0209563
0.115844
0.272915
0.0455105
0.0537138
0.0634896
0.0727444
0.0773797
0.0709741
0.0461096
0.0371722
0.137382
0.307746
0.0489623
0.063923
0.078694
0.0903048
0.0940359
0.0834965
0.0542847
0.0557559
0.164389
0.344003
0.0686671
0.0841746
0.0976275
0.105594
0.103194
0.0847532
0.0505564
0.0731543
0.19315
0.378107
0.0848928
0.097791
0.10677
0.108289
0.0977755
0.0706064
0.0358965
0.0921028
0.220683
0.406397
0.0909212
0.099656
0.102971
0.09758
0.0794287
0.0446618
0.0282526
0.113986
0.244224
0.425812
0.1281
0.156366
0.189809
0.229856
0.278639
0.339327
0.416431
0.515828
0.644164
0.807745
0.0893845
0.11254
0.14051
0.174623
0.216829
0.27001
0.338278
0.427019
0.54242
0.690587
0.0610011
0.0784917
0.100473
0.128139
0.163244
0.208368
0.267214
0.344658
0.446375
0.578249
0.040151
0.0518898
0.0677121
0.0886834
0.116357
0.153035
0.202028
0.26773
0.355314
0.470536
0.0230448
0.0295975
0.0396112
0.0540546
0.0743218
0.102486
0.141536
0.195436
0.26893
0.367901
0.0117479
0.0136806
0.0174611
0.0246669
0.0369988
0.0564271
0.0856114
0.128051
0.188123
0.272361
0.0210668
0.0221511
0.021571
0.0191844
0.016121
0.0191803
0.03631
0.0677877
0.116065
0.189009
0.033987
0.0358613
0.0364167
0.0349907
0.0305295
0.0215232
0.00628432
0.0203224
0.0610406
0.129227
0.0418374
0.0431149
0.0440737
0.0439355
0.0419049
0.0370998
0.0291327
0.0236187
0.0459442
0.110826
0.0520065
0.0515658
0.0509145
0.0493809
0.0467701
0.0434198
0.0407341
0.043406
0.0652355
0.129776
0.0464286
0.0397551
0.0365663
0.0334053
0.0302351
0.0270184
0.023726
0.0203564
0.0169874
0.0139125
0.0119528
0.0125505
0.0163889
0.0228234
0.0312666
0.041552
0.0537541
0.0680754
0.0848126
0.104351
0.048101
0.035354
0.0320446
0.0288334
0.0256824
0.0225483
0.0193826
0.0161334
0.0127538
0.00923171
0.00575102
0.00385868
0.00664164
0.0118567
0.0182455
0.0257302
0.0344484
0.0446211
0.0565352
0.0705916
0.0499354
0.0319058
0.0285681
0.0254377
0.0224972
0.0197314
0.0171308
0.0147014
0.0124837
0.0105893
0.00926251
0.00889492
0.00981311
0.0119961
0.0152287
0.0193713
0.0244271
0.030511
0.0378156
0.046812
0.0513192
0.0290902
0.0257476
0.0227342
0.0200598
0.0177395
0.0157995
0.0142775
0.0132146
0.012648
0.0125853
0.0129985
0.013823
0.01498
0.0164074
0.018088
0.0200735
0.0224934
0.0255086
0.0298347
0.0518802
0.0266902
0.0233211
0.0203952
0.0179416
0.0159888
0.0145579
0.0136494
0.0132305
0.013231
0.0135612
0.0141208
0.0147984
0.0154722
0.0160056
0.0162699
0.0161888
0.0157951
0.0151671
0.0154474
0.0514151
0.0246193
0.021198
0.0183174
0.0160164
0.0143125
0.0131828
0.0125482
0.0122834
0.0122585
0.0123617
0.0125136
0.0126452
0.0126698
0.0124438
0.0117658
0.010466
0.00869827
0.0075358
0.00869195
0.0498239
0.0228783
0.0194049
0.0165558
0.0143688
0.0128336
0.0118517
0.0112457
0.0108061
0.0103576
0.00979063
0.00907283
0.00824811
0.00743107
0.00681418
0.00672728
0.00780399
0.0109113
0.0168218
0.0229828
0.0470494
0.0214929
0.0180048
0.0151932
0.0131028
0.0116858
0.0107643
0.0100777
0.00938131
0.00852522
0.00754476
0.00678705
0.00699228
0.00870682
0.0116571
0.0153238
0.0194542
0.0242058
0.030725
0.036925
0.0429964
0.0205098
0.0170586
0.0142575
0.0121928
0.0107896
0.00982555
0.00902508
0.00821682
0.00749804
0.00744851
0.00896435
0.012362
0.0172832
0.0232312
0.0296258
0.0357011
0.0403983
0.0429097
0.0436119
0.0372547
0.0202189
0.0167257
0.0137768
0.0115518
0.00997879
0.00883701
0.00790673
0.00716502
0.00696551
0.0079763
0.0105325
0.0144046
0.0192258
0.024687
0.0305428
0.0366258
0.042328
0.0448481
0.0466153
0.0333412
0.0224136
0.0179192
0.014572
0.0121291
0.0103386
0.00891109
0.00759398
0.00628662
0.00516676
0.00485029
0.00594965
0.00824723
0.0113897
0.0154915
0.0211024
0.0288391
0.0385575
0.0486519
0.0602198
0.0323057
0.0245928
0.0192143
0.0152197
0.0121371
0.00963446
0.00744899
0.00544453
0.00383198
0.00358169
0.0051739
0.00759666
0.010281
0.0132271
0.0169221
0.0222156
0.029811
0.0397274
0.0513649
0.0645023
0.0323227
0.0256354
0.0202159
0.0158523
0.0122338
0.0090665
0.00615316
0.00346557
0.00209629
0.00393199
0.00660078
0.00916487
0.0114807
0.0138452
0.0171354
0.0224837
0.0304586
0.0407027
0.0521991
0.0635452
0.032723
0.0264286
0.0210261
0.0164141
0.0123733
0.00866506
0.00514207
0.00182593
0.0020711
0.00509847
0.00783291
0.0100094
0.011673
0.0134408
0.0166097
0.0223471
0.0307044
0.0408004
0.0513172
0.0606253
0.0333342
0.027195
0.0217695
0.0169523
0.0125701
0.00844593
0.00450293
0.000958566
0.00299606
0.00604943
0.00845447
0.0100369
0.0109944
0.0123498
0.0157356
0.0219524
0.0304055
0.0399126
0.0491769
0.0568332
0.0341113
0.0280212
0.0225333
0.0175294
0.0128618
0.00845243
0.00433421
0.0015108
0.00379691
0.00653581
0.00844822
0.00936291
0.0097087
0.0109352
0.014785
0.0213409
0.0295274
0.0381482
0.0460938
0.0523525
0.0350479
0.0289592
0.0233854
0.0181976
0.0133333
0.00874892
0.00466794
0.00250171
0.00434856
0.0066138
0.00796133
0.00825314
0.00816677
0.00959618
0.0139619
0.0205515
0.0281369
0.0356827
0.04233
0.0473556
0.0361649
0.030044
0.0243684
0.0190421
0.0140209
0.0093905
0.00548573
0.00364637
0.00484349
0.0065117
0.00730666
0.00711762
0.00688747
0.00876142
0.0134101
0.0196479
0.0263683
0.0327533
0.0381502
0.0420585
0.0374642
0.0313047
0.0255342
0.0200988
0.0150075
0.0104132
0.00676627
0.0050509
0.00558591
0.0066179
0.00697103
0.0065832
0.00657874
0.00879494
0.013223
0.0187288
0.0243817
0.0295498
0.0337664
0.0366733
0.0389655
0.0327598
0.0269213
0.0214153
0.0163232
0.01184
0.00845446
0.00680052
0.00682942
0.00734865
0.00747769
0.00724794
0.00762695
0.00974397
0.0134521
0.0178982
0.0223346
0.0262741
0.0293518
0.03136
0.0406657
0.0344321
0.0285412
0.0230177
0.0179799
0.01367
0.0105287
0.00892717
0.00865644
0.00888269
0.00900788
0.00907299
0.0096752
0.0113781
0.0140892
0.0172744
0.020395
0.023066
0.0250484
0.0261969
0.0425854
0.0363293
0.0304163
0.0249188
0.0199718
0.0158679
0.0129449
0.0114145
0.0110025
0.0111209
0.0113284
0.0116077
0.0122255
0.0134081
0.0150765
0.0169583
0.0186991
0.0200793
0.020953
0.0212587
0.0447009
0.0384425
0.0325405
0.0271002
0.0222998
0.0183923
0.0156752
0.0142218
0.0137724
0.0138571
0.0141329
0.0144936
0.0149901
0.0156396
0.0163702
0.0170213
0.0174288
0.0174836
0.0171871
0.0165733
0.0470138
0.0407674
0.0349106
0.0295547
0.0249179
0.0212188
0.0186818
0.0173117
0.0168563
0.0169276
0.0172168
0.017538
0.0178182
0.0179785
0.0179067
0.0175081
0.0166943
0.0154714
0.0139094
0.0122078
0.049513
0.0432958
0.0374985
0.0322696
0.0277968
0.0243042
0.0219168
0.0206228
0.0201666
0.0202018
0.0204332
0.0206371
0.0206557
0.0203605
0.0196407
0.0184107
0.0166228
0.0142657
0.0114231
0.00833647
0.0521754
0.046017
0.0403121
0.0352187
0.0309241
0.0276065
0.0253561
0.0241142
0.023637
0.023606
0.0237164
0.0237378
0.0234732
0.0227821
0.0215545
0.0197153
0.0172197
0.0140529
0.0101981
0.0056759
0.054997
0.0489084
0.0433176
0.0383744
0.0342493
0.0310929
0.0289578
0.0277399
0.0272127
0.0270651
0.0270119
0.0268107
0.0262581
0.025229
0.0236193
0.0213687
0.0184517
0.0148511
0.0105961
0.00588823
0.0579538
0.0519567
0.0464899
0.0417082
0.0377504
0.0347397
0.0326807
0.031464
0.0308484
0.0305518
0.0302952
0.0298521
0.0290302
0.0277187
0.0258318
0.0233347
0.0202209
0.0165331
0.0124527
0.00869002
0.0610319
0.055148
0.0498325
0.0452008
0.0414051
0.038514
0.0365002
0.035246
0.0345064
0.0340307
0.0335525
0.0328599
0.0317996
0.0302631
0.028196
0.0255786
0.022445
0.0188944
0.0152572
0.0124605
0.0642278
0.0584682
0.0532997
0.0488419
0.0451819
0.0423842
0.0403936
0.0390572
0.038178
0.0374955
0.0367849
0.0358553
0.0345848
0.0328861
0.0307177
0.0280881
0.0250497
0.0217625
0.0186425
0.0166152
0.0686142
0.0838371
0.0876627
0.0767834
0.0569347
0.0363262
0.0354693
0.0542892
0.0712879
0.0798953
0.0739603
0.0819326
0.08099
0.0680459
0.0480287
0.0270416
0.0244368
0.0419952
0.0578211
0.0670187
0.0729902
0.0756783
0.0727591
0.0605209
0.0416581
0.0206477
0.0148277
0.0311576
0.0453864
0.0542768
0.0702646
0.0688437
0.0635609
0.0525352
0.0361064
0.0169847
0.00797069
0.022584
0.0346224
0.0424148
0.0658281
0.0618705
0.0547788
0.0446043
0.0308208
0.0151521
0.00664493
0.0171298
0.0261211
0.0319927
0.0600075
0.0547928
0.0468498
0.0373526
0.0259776
0.0144602
0.00992096
0.0154891
0.0205932
0.0235969
0.0534102
0.0477845
0.0397739
0.0310498
0.0219375
0.0147637
0.0138927
0.017046
0.0186789
0.0181329
0.0465604
0.0410068
0.0334607
0.025749
0.0190233
0.015988
0.0177274
0.0202169
0.0200085
0.016674
0.0397947
0.0345875
0.0278339
0.0214741
0.0174506
0.0179611
0.0214057
0.0239409
0.0232415
0.0188925
0.0333003
0.0285746
0.0228533
0.0182746
0.0172463
0.0204493
0.0249924
0.0278342
0.0272723
0.023049
0.0271602
0.0229988
0.0185507
0.0162724
0.0182146
0.0232854
0.0285502
0.0317498
0.031593
0.0279074
0.0213919
0.0178675
0.0150502
0.015573
0.0200509
0.0263409
0.0321246
0.035674
0.0359788
0.0329351
0.0159593
0.0132226
0.0126456
0.0161406
0.0224691
0.0295606
0.0357408
0.0396215
0.0403892
0.0379755
0.0108314
0.00926217
0.0117345
0.0177476
0.0252956
0.0329364
0.039425
0.0436177
0.0448215
0.0429874
0.0059415
0.00670063
0.0124796
0.0201205
0.0284092
0.0364476
0.043197
0.0476893
0.049286
0.0479717
0.00132102
0.00687966
0.0145744
0.0230335
0.0317805
0.0401021
0.0470929
0.0518517
0.0538203
0.0529689
0.00346839
0.00951864
0.0175316
0.0263325
0.0353668
0.0439248
0.0511174
0.0561288
0.0584451
0.0580172
0.00799995
0.0132043
0.0210222
0.0299348
0.0391577
0.0479066
0.0553055
0.0605541
0.0631819
0.0631376
0.0125597
0.017309
0.0248799
0.0338183
0.0431693
0.0520842
0.0596643
0.065152
0.0680724
0.0683718
0.017191
0.0216839
0.0290542
0.0379742
0.0474212
0.0564604
0.0642139
0.0699187
0.0731296
0.0737506
)
;

boundaryField
{
    down
    {
        type            symmetryPlane;
    }
    right
    {
        type            calculated;
        value           nonuniform List<scalar> 
30
(
0.00679149
0.0132664
0.0206428
0.0265659
0.0309394
0.0338998
0.0356096
0.0362184
0.035866
0.0347023
0.0329233
0.030837
0.02843
0.025827
0.0231623
0.0205809
0.0182615
0.0163972
0.015191
0.0147791
0.0151611
0.0161884
0.0176459
0.0193381
0.0211069
0.0228568
0.0245136
0.0260523
0.0274521
0.0287144
)
;
    }
    up
    {
        type            symmetryPlane;
    }
    left
    {
        type            calculated;
        value           uniform 0;
    }
    cylinder
    {
        type            symmetry;
    }
    defaultFaces
    {
        type            empty;
    }
}


// ************************************************************************* //
