/*--------------------------------*- C++ -*----------------------------------*\
| =========                 |                                                 |
| \\      /  F ield         | OpenFOAM: The Open Source CFD Toolbox           |
|  \\    /   O peration     | Version:  2112                                  |
|   \\  /    A nd           | Website:  www.openfoam.com                      |
|    \\/     M anipulation  |                                                 |
\*---------------------------------------------------------------------------*/
FoamFile
{
    version     2.0;
    format      ascii;
    arch        "LSB;label=32;scalar=64";
    class       volScalarField;
    location    "0";
    object      error_Phi;
}
// * * * * * * * * * * * * * * * * * * * * * * * * * * * * * * * * * * * * * //

dimensions      [0 2 -1 0 0 0 0];

internalField   nonuniform List<scalar> 
2000
(
0.220791
0.186144
0.156852
0.131838
0.110338
0.0917645
0.0756928
0.061746
0.0496747
0.039227
0.203955
0.17261
0.1461
0.123433
0.103909
0.0870192
0.0723433
0.0595799
0.0484644
0.0387888
0.184446
0.156486
0.13283
0.112588
0.0951358
0.0800192
0.0668619
0.0553951
0.045386
0.0366285
0.162504
0.138
0.117255
0.0995137
0.0842238
0.0709833
0.0594566
0.0494141
0.0406422
0.0329738
0.138417
0.117421
0.0996647
0.0844952
0.0714411
0.0601585
0.050358
0.0418255
0.034393
0.0279106
0.112542
0.0951196
0.080411
0.0678837
0.0571329
0.0478773
0.039859
0.0329049
0.0268602
0.0216008
0.085288
0.0714882
0.0598941
0.0500811
0.0417054
0.0345327
0.028361
0.0230248
0.0183808
0.0143309
0.0570825
0.0469999
0.0385974
0.0315533
0.0256282
0.0205887
0.0162945
0.0125764
0.00933297
0.00647429
0.0283934
0.0221184
0.0169814
0.0127971
0.00935423
0.00649606
0.00407266
0.00198248
0.000119732
0.00157291
0.000333877
0.00272653
0.00451228
0.00580623
0.00672526
0.00741008
0.0079569
0.00846401
0.00898531
0.00955009
0.217993
0.15458
0.100587
0.0546443
0.0157567
0.0169059
0.0439786
0.0660164
0.0834803
0.0967864
0.232394
0.171662
0.120139
0.0764377
0.0394927
0.00847546
0.0172774
0.0383218
0.0551246
0.0680959
0.243896
0.185838
0.136731
0.0951366
0.059978
0.0304178
0.00580218
0.0144417
0.030768
0.0435746
0.252316
0.196959
0.150206
0.110635
0.077158
0.048947
0.0253438
0.0057871
0.0101539
0.0228804
0.257525
0.204908
0.160505
0.122924
0.0910722
0.0641469
0.0414903
0.0225961
0.00700125
0.00564787
0.259474
0.20964
0.167614
0.132004
0.101763
0.0761167
0.0544206
0.0361763
0.0209804
0.00847524
0.25814
0.211172
0.17155
0.137934
0.109333
0.0849747
0.0642629
0.0467367
0.0320131
0.0197759
0.253533
0.209503
0.172353
0.140794
0.113857
0.090837
0.0711728
0.0544334
0.0402758
0.0284146
0.245712
0.204721
0.170108
0.140646
0.115446
0.0938307
0.0752771
0.0593831
0.0458351
0.034407
0.234762
0.196891
0.164899
0.137628
0.114237
0.094093
0.0767231
0.0617431
0.0488374
0.0377479
0.106696
0.11358
0.117259
0.118049
0.116253
0.112157
0.106031
0.0981251
0.0886696
0.0778722
0.065924
0.0529917
0.0392265
0.0247601
0.00970853
0.0058273
0.0217594
0.0380138
0.0545229
0.0712322
0.0786161
0.0869628
0.0922232
0.0946716
0.094578
0.092202
0.0877891
0.0815688
0.0737553
0.0645445
0.0541135
0.0426252
0.030224
0.0170393
0.00318396
0.0112389
0.0261423
0.0414496
0.0570924
0.0730132
0.0546528
0.0642138
0.0708174
0.0746972
0.0760892
0.075221
0.0723129
0.0675741
0.0611996
0.0533707
0.0442564
0.0340101
0.0227717
0.0106691
0.00218474
0.0156891
0.0297556
0.0443037
0.0592667
0.0745822
0.0344101
0.0449304
0.0526484
0.057749
0.0604293
0.0608832
0.0593017
0.0558673
0.0507556
0.0441328
0.0361564
0.0269748
0.0167237
0.00552771
0.00650087
0.0192601
0.032659
0.0466186
0.0610677
0.0759443
0.0174737
0.0287011
0.0373155
0.0434508
0.0472527
0.0488745
0.0484702
0.0461905
0.0421895
0.0366183
0.0296248
0.0213515
0.0119309
0.0014865
0.00986863
0.0220331
0.0349157
0.0484354
0.06252
0.0771069
0.00343904
0.0151192
0.0244335
0.0314465
0.0362392
0.0389043
0.0395487
0.0382921
0.0352656
0.0306092
0.0244623
0.0169615
0.00823841
0.00158442
0.0123969
0.024095
0.0365893
0.0497983
0.0636499
0.0780799
0.00805309
0.00381771
0.0136605
0.0214286
0.027101
0.0306936
0.032265
0.0319053
0.0297309
0.025869
0.0204538
0.0136172
0.0054856
0.00382035
0.0141925
0.02553
0.0377435
0.0507508
0.0644828
0.0788742
0.0172215
0.00546221
0.00475846
0.0131551
0.0195683
0.0239437
0.0263049
0.0267205
0.0252916
0.0221334
0.0173694
0.011122
0.0035099
0.00535323
0.0153614
0.0264181
0.0384347
0.0513338
0.0650433
0.0795008
0.023985
0.0127017
0.00236856
0.00639319
0.0133072
0.0182757
0.0212884
0.0223849
0.0216377
0.0191377
0.0149869
0.00929157
0.00216014
0.00630237
0.0159974
0.02683
0.0387177
0.0515817
0.0653541
0.0799715
0.0278667
0.0175438
0.00787387
0.000719936
0.0078339
0.0132331
0.0168214
0.0185693
0.0184958
0.0166542
0.0131159
0.00797031
0.00130967
0.00677231
0.016182
0.0268327
0.0386402
0.0515317
0.065438
0.0802981
0.0249068
0.0163654
0.00820558
0.000761869
0.00558832
0.0105562
0.0139675
0.0157268
0.0158001
0.0141967
0.0109539
0.00613146
0.000203081
0.00797382
0.0171022
0.0275138
0.0391367
0.051903
0.0657525
0.0806272
0.0186669
0.0119241
0.00534583
0.000676991
0.00582508
0.00983285
0.0125224
0.0137784
0.0135385
0.0117824
0.00851904
0.00378008
0.00239065
0.00994049
0.0188124
0.0289466
0.0402881
0.0527799
0.0663731
0.0810184
0.013181
0.00788185
0.00263825
0.00220358
0.0063275
0.00950317
0.0115461
0.0123336
0.011787
0.0098634
0.00655122
0.00185792
0.00419406
0.0115702
0.020232
0.0301367
0.0412408
0.0535009
0.0668759
0.0813261
0.00856607
0.00437234
0.000181196
0.00367668
0.00694548
0.00941074
0.0108892
0.0112557
0.0104232
0.00833441
0.00495877
0.000286149
0.00567801
0.0129171
0.0214074
0.0311195
0.0420226
0.0540851
0.0672733
0.0815567
0.00474243
0.0013968
0.00194606
0.00502097
0.00758309
0.00944294
0.010437
0.0104362
0.00934688
0.00710303
0.00365985
0.00100597
0.00690365
0.0140314
0.0223774
0.0319268
0.0426581
0.0545488
0.0675763
0.081715
0.00161847
0.00107314
0.0037413
0.00617579
0.00815285
0.0095167
0.0101026
0.00978786
0.0084757
0.00609388
0.0025878
0.00207664
0.00792114
0.0149537
0.0231774
0.0325853
0.0431669
0.0549092
0.0677938
0.0818049
0.000913244
0.00307087
0.00520609
0.0071128
0.00862816
0.00957536
0.00982214
0.00924542
0.00774631
0.00524762
0.00168828
0.00297444
0.00877156
0.015722
0.0238367
0.0331192
0.043568
0.0551748
0.0679328
0.0818284
0.00292991
0.00465993
0.00635197
0.00784312
0.00896107
0.00958111
0.00955095
0.0087588
0.0071077
0.00451558
0.000916936
0.00373946
0.00948998
0.0163634
0.0243792
0.0335472
0.0438738
0.0553577
0.0679978
0.0817864
0.00448334
0.00585959
0.00719675
0.00834424
0.00915988
0.00950601
0.00925466
0.00829283
0.00652232
0.00386
0.000236936
0.0044027
0.0101057
0.016904
0.0248236
0.0338843
0.0440948
0.0554632
0.067992
0.0816781
0.0056263
0.00670138
0.00775136
0.00862731
0.00919677
0.00933506
0.00891069
0.00781894
0.00596193
0.00325421
0.000376794
0.00499169
0.0106389
0.0173608
0.0251861
0.0341401
0.0442403
0.0554968
0.0679163
0.0815017
0.00638024
0.00722665
0.00803745
0.00870483
0.0090757
0.00905229
0.00849968
0.00731574
0.0054014
0.00267253
0.000948452
0.0055242
0.0111091
0.0177481
0.0254773
0.0343258
0.0443142
0.0554596
0.0677704
0.0812546
0.00678417
0.00743508
0.00806574
0.00855897
0.00879079
0.00864518
0.0080049
0.00676264
0.00482251
0.00209519
0.00149533
0.00601712
0.0115289
0.0180786
0.0257072
0.0344458
0.0443212
0.0553523
0.0675538
0.0809331
0.00682432
0.00732401
0.00781502
0.0081904
0.00832498
0.00809938
0.00740805
0.00614365
0.00420578
0.00150628
0.00203477
0.00648738
0.011913
0.0183631
0.0258826
0.0345068
0.0442644
0.0551775
0.0672633
0.0805337
0.00651419
0.00689812
0.00729161
0.00758753
0.00765923
0.00739678
0.00669327
0.0054384
0.00353346
0.000886783
0.00258213
0.00694674
0.0122718
0.0186107
0.0260111
0.0345115
0.0441436
0.0549331
0.0668981
0.0800526
0.00583495
0.0061396
0.00646928
0.00672623
0.00677198
0.00651682
0.00583634
0.0046253
0.00278275
0.000217712
0.00315558
0.00741167
0.0126182
0.018831
0.0261002
0.0344659
0.0439645
0.0546206
0.0664563
0.0794868
0.00477582
0.00502837
0.0053393
0.00557972
0.00564894
0.00543316
0.00481229
0.003679
0.00193213
0.000523524
0.00377478
0.00790002
0.0129664
0.019036
0.0261576
0.0343769
0.0437283
0.0542414
0.0659374
0.0788343
0.00329458
0.00354251
0.00385073
0.0041287
0.00425308
0.00411457
0.00359009
0.00257204
0.000953939
0.00136063
0.00446245
0.00842958
0.0133344
0.0192389
0.0261964
0.0342526
0.0434425
0.0537992
0.0653432
0.0780944
0.00136808
0.00162869
0.0019808
0.0023317
0.00254483
0.00252297
0.00213465
0.00126774
0.000184806
0.0023247
0.00524373
0.0090245
0.0137415
0.0194574
0.0262296
0.0341027
0.043115
0.0532987
0.0646768
0.0772684
0.00103725
0.000737276
0.000314559
0.00013543
0.000492393
0.000617681
0.00040399
0.000270783
0.00152049
0.00344839
0.00615035
0.00971256
0.0142115
0.0197125
0.0262737
0.0339413
0.0427557
0.0527488
0.0639441
0.07636
0.00397484
0.0036099
0.00308025
0.00249468
0.00196777
0.00164716
0.00164452
0.00208736
0.00309177
0.00476882
0.00721669
0.0105243
0.0147721
0.0200269
0.0263497
0.0337869
0.0423799
0.0521597
0.0631524
0.075375
0.0102771
0.00344212
0.00346912
0.0101855
0.016361
0.0216567
0.0257912
0.0285951
0.0300694
0.0301971
0.0111029
0.00532229
0.000529868
0.00624321
0.0115149
0.0160301
0.019497
0.0216922
0.0224908
0.0223399
0.0119153
0.00697602
0.00197714
0.00291381
0.00740623
0.0112081
0.0140181
0.0156522
0.0160957
0.0159183
0.0127122
0.00845792
0.00415649
4.30827e-05
0.00387554
0.0070438
0.00931956
0.0105613
0.0108993
0.0107515
0.013481
0.00977856
0.00604536
0.00243394
0.000831674
0.0034945
0.00535367
0.00636466
0.00668716
0.00655284
0.0142007
0.0109578
0.00769704
0.00455576
0.00175909
0.000503195
0.0020743
0.00295267
0.00325286
0.00312564
0.0148537
0.0119869
0.00911373
0.00636718
0.00392493
0.00197121
0.000600588
0.000195851
0.000484329
0.000350895
0.0154358
0.0128597
0.0102983
0.00786151
0.00570057
0.00397512
0.00273847
0.00201255
0.00173148
0.00187662
0.0159166
0.0135728
0.0112555
0.00906218
0.00711901
0.00554172
0.0044128
0.00372564
0.00346581
0.00361374
0.0162888
0.0141158
0.011982
0.00996363
0.0081729
0.00672235
0.00565404
0.00500307
0.00476691
0.00490606
0.0165478
0.0145008
0.0124866
0.0105917
0.00890531
0.00752767
0.00651077
0.00589162
0.00565987
0.00579654
0.0166809
0.0147019
0.0127603
0.0109439
0.00932021
0.00798828
0.00700054
0.00639611
0.00617704
0.00630517
0.016687
0.0147248
0.0128154
0.0110288
0.00943257
0.00811526
0.00714054
0.00654008
0.00631863
0.00643911
0.0165459
0.0145665
0.0126455
0.0108566
0.0092484
0.00792032
0.00693803
0.00632639
0.0060833
0.0061932
0.0162581
0.0142145
0.0122551
0.0104081
0.0087646
0.00739587
0.0063806
0.00573765
0.00547873
0.00557045
0.0158246
0.0136772
0.0116294
0.00970521
0.00798891
0.00655505
0.00546632
0.00477651
0.00447206
0.00454255
0.0152263
0.0129531
0.0107742
0.0087302
0.00689977
0.00536173
0.00419387
0.00341595
0.00306024
0.00309034
0.0144544
0.0120111
0.00967571
0.00748606
0.00550632
0.00383052
0.00253262
0.00165949
0.00122041
0.00118432
0.0135202
0.0108701
0.00833034
0.0059463
0.00378841
0.00194686
0.000482807
0.000528619
0.00108978
0.00120493
0.0124049
0.00950958
0.00673513
0.00412507
0.00174666
0.0003129
0.00197432
0.00317306
0.00388176
0.00411624
0.078029
0.0852868
0.0942333
0.105149
0.118386
0.134356
0.153561
0.17664
0.204412
0.237992
0.0753083
0.0821037
0.0904131
0.100486
0.112619
0.127179
0.14462
0.165493
0.190593
0.220939
0.070696
0.0769721
0.0846002
0.0937918
0.104804
0.117952
0.133624
0.152339
0.174773
0.201849
0.0646054
0.0702417
0.0770978
0.0853445
0.0952051
0.106929
0.120849
0.137405
0.157176
0.180939
0.0573526
0.0622876
0.0682986
0.0755513
0.084202
0.0944693
0.106617
0.120998
0.138066
0.158455
0.0493919
0.0535614
0.0586793
0.0648604
0.0722466
0.0809952
0.0913182
0.10344
0.117718
0.1346
0.0411712
0.0445242
0.0486713
0.0537055
0.0597424
0.0668843
0.0752564
0.0850055
0.0963282
0.109574
0.0330318
0.0355026
0.03861
0.0424214
0.0469912
0.0523931
0.0586562
0.0658488
0.0740652
0.0835055
0.0251177
0.0266482
0.0286283
0.0310946
0.0340866
0.0375798
0.0415757
0.0460403
0.0509963
0.0565143
0.0173635
0.0178631
0.018631
0.0196605
0.0209267
0.0223835
0.0239672
0.0255789
0.0271672
0.0287336
0.000325447
0.0115297
0.0260145
0.044245
0.0668106
0.0943972
0.127858
0.168189
0.21661
0.27464
0.0175828
0.0281739
0.0419224
0.0593007
0.0808881
0.107383
0.139625
0.178628
0.225607
0.282065
0.0323911
0.0425017
0.0556306
0.0722571
0.0929382
0.118382
0.149407
0.187038
0.232449
0.287162
0.0447161
0.0544699
0.067086
0.0830406
0.102886
0.127306
0.157124
0.193325
0.237067
0.289828
0.0546994
0.0641778
0.0763592
0.0916946
0.11074
0.134168
0.16275
0.197448
0.239387
0.289994
0.0626889
0.0718881
0.0836423
0.0983751
0.116622
0.139011
0.166306
0.199398
0.23938
0.287628
0.0691066
0.0779571
0.0892083
0.103275
0.120658
0.14195
0.167851
0.19921
0.237046
0.282715
0.074139
0.082525
0.0932105
0.106539
0.122959
0.14304
0.16741
0.196868
0.232385
0.275252
0.0774742
0.0854363
0.0955221
0.108062
0.123464
0.14222
0.164933
0.192348
0.225376
0.26527
0.0786504
0.0863596
0.0959076
0.107656
0.121983
0.139363
0.160342
0.185612
0.216044
0.252825
0.124132
0.109319
0.0949604
0.0811308
0.0678599
0.0552099
0.0432465
0.0320292
0.0216409
0.0121585
0.00367212
0.00372495
0.00991689
0.0147958
0.0182222
0.0200746
0.0201896
0.01839
0.0144727
0.00821535
0.13088
0.11658
0.102766
0.0894921
0.0767962
0.0647386
0.0533724
0.0427643
0.0329946
0.0241269
0.0162588
0.00948078
0.0038968
0.000396727
0.00326117
0.00456585
0.00415794
0.00186155
0.00249383
0.00913605
0.136512
0.122619
0.109248
0.0964251
0.0842059
0.0726401
0.0617896
0.0517196
0.0424882
0.0341872
0.0268817
0.0206705
0.0156355
0.011902
0.00956759
0.00877258
0.00964969
0.0123546
0.0170873
0.0240239
0.141061
0.127477
0.114426
0.101954
0.0901175
0.0789462
0.0685218
0.0588988
0.0501347
0.0423102
0.0355095
0.0298
0.0252828
0.022052
0.0202152
0.0198724
0.0211771
0.0242558
0.0292796
0.0364255
0.144587
0.131203
0.118387
0.106174
0.0946134
0.0837551
0.0736617
0.0643884
0.056013
0.0485866
0.0422133
0.036941
0.0328808
0.0301174
0.028729
0.0288273
0.0305174
0.0339286
0.0392051
0.0464974
0.147179
0.133918
0.121241
0.109197
0.0978356
0.0871989
0.0773514
0.0683599
0.0602838
0.0531961
0.0471627
0.0422733
0.0386212
0.0362736
0.0353316
0.0358602
0.0379588
0.0417108
0.0472251
0.0546255
0.148949
0.135724
0.123114
0.11117
0.0999441
0.0894714
0.0798189
0.0710363
0.0632065
0.0563857
0.0506637
0.0461042
0.0428049
0.0408678
0.040349
0.0413387
0.0438907
0.0480523
0.053853
0.061313
0.149991
0.136747
0.124153
0.112263
0.101123
0.0907713
0.0812791
0.0726907
0.0650838
0.0585198
0.0530745
0.0488376
0.045893
0.0443287
0.0442359
0.0456882
0.0487202
0.0533449
0.0594507
0.0668466
0.150438
0.137109
0.12449
0.112619
0.101547
0.0913074
0.0819662
0.073584
0.0662151
0.059928
0.0548054
0.050914
0.0483538
0.0471867
0.047495
0.0493385
0.0527412
0.0576572
0.0639058
0.0709161
0.150371
0.136889
0.124222
0.112375
0.101374
0.0912677
0.0821002
0.0739392
0.0668569
0.0609093
0.0561662
0.0527195
0.0506114
0.0499015
0.0506236
0.0527711
0.0562727
0.0609686
0.066517
0.0725836
0.149693
0.136499
0.124101
0.112505
0.101749
0.0918957
0.0829931
0.0750915
0.0682755
0.0625925
0.0581009
0.0548577
0.0528956
0.0522186
0.0528178
0.0545977
0.0574131
0.0610286
0.0651304
0.0694498
0.148741
0.136163
0.124259
0.113116
0.102771
0.0932767
0.0846987
0.0770857
0.0704985
0.0649883
0.0605943
0.0573402
0.0552303
0.0542558
0.0543506
0.0553898
0.0572195
0.0596005
0.0622529
0.0648727
0.147682
0.135617
0.124197
0.113474
0.103529
0.0944007
0.0861542
0.0788347
0.0724775
0.0671458
0.0628369
0.0595789
0.057346
0.0560857
0.0557063
0.0560881
0.0570365
0.0583379
0.0597473
0.0609749
0.146532
0.13494
0.12396
0.113667
0.104108
0.0953422
0.0874213
0.0803858
0.0742742
0.0691095
0.0648956
0.0616431
0.0592758
0.0577489
0.0569488
0.056727
0.0569061
0.0572871
0.0576575
0.0577974
0.145312
0.134161
0.12362
0.113734
0.104568
0.0961594
0.0885652
0.0818105
0.0759252
0.0709308
0.0668163
0.0635547
0.0610802
0.0592984
0.0581089
0.0573409
0.056851
0.0564615
0.0559876
0.0552817
0.14406
0.133339
0.123216
0.113734
0.104936
0.0968864
0.0896074
0.0831368
0.0774848
0.0726603
0.0686368
0.0653703
0.0627776
0.0607686
0.0592108
0.0579672
0.0569043
0.05586
0.0546997
0.053329
0.142811
0.13251
0.122793
0.1137
0.105274
0.0975745
0.0906069
0.0844112
0.0789869
0.0743196
0.0703779
0.067092
0.0643941
0.0621624
0.0602875
0.0586308
0.0570628
0.05547
0.0537488
0.0518369
0.141578
0.131696
0.122372
0.113666
0.105615
0.0982434
0.0915916
0.0856597
0.0804458
0.0759223
0.0720539
0.0687669
0.0659619
0.0635296
0.0613577
0.0593201
0.057324
0.0552755
0.053102
0.0507515
0.140411
0.130928
0.121995
0.11367
0.105976
0.0989315
0.0925787
0.0868983
0.081887
0.0775145
0.0737126
0.0703963
0.0674881
0.0648644
0.0624338
0.0600753
0.0577143
0.0552667
0.0527099
0.0500103
0.139321
0.130237
0.121693
0.113724
0.106378
0.0996672
0.0935957
0.0881641
0.0833477
0.0790944
0.075345
0.0720157
0.0690037
0.0662045
0.0635303
0.0608868
0.0582083
0.0554402
0.0525581
0.0495752
0.138327
0.129632
0.121465
0.113866
0.106859
0.100459
0.0946605
0.089465
0.0848166
0.0806828
0.0769751
0.0736234
0.0705127
0.06755
0.0646629
0.0617649
0.0588092
0.0557696
0.0526188
0.0493945
0.137459
0.129142
0.121349
0.114105
0.107428
0.101324
0.0957915
0.0908099
0.0863342
0.0823024
0.0786291
0.0752404
0.0720312
0.0689223
0.0658378
0.0627193
0.0595285
0.0562464
0.0528813
0.0494441
0.136734
0.128786
0.121355
0.11445
0.108093
0.102283
0.0970076
0.0922289
0.0879021
0.0839578
0.0803154
0.0768896
0.073587
0.0703437
0.067081
0.0637587
0.060356
0.0568701
0.0533132
0.0497082
0.136151
0.128573
0.121491
0.114929
0.108882
0.103342
0.0983084
0.0937129
0.0895236
0.0856651
0.082034
0.0785751
0.0751886
0.0718067
0.0683883
0.0649007
0.0613098
0.0576478
0.0539198
0.0501595
0.135727
0.128519
0.121785
0.115541
0.109785
0.104523
0.0997041
0.0952937
0.0912328
0.0874318
0.0838159
0.0803119
0.0768448
0.0733435
0.0697841
0.0661311
0.062386
0.0585649
0.0546848
0.0507891
0.135482
0.128615
0.122215
0.116293
0.11083
0.105824
0.101215
0.0969737
0.0930147
0.0892758
0.0856726
0.0821253
0.0785743
0.0749654
0.0712818
0.0674841
0.0635987
0.0596245
0.0556094
0.0515861
0.135401
0.128886
0.122819
0.117205
0.112016
0.107244
0.102843
0.0987463
0.094895
0.091206
0.0875964
0.0840206
0.0803953
0.0766928
0.072883
0.068962
0.0649399
0.0608376
0.0566931
0.052548
0.135515
0.129333
0.123586
0.118264
0.113353
0.108805
0.10459
0.100635
0.09688
0.0932314
0.0896293
0.0860029
0.082315
0.0785148
0.0746079
0.0705649
0.0664292
0.0622027
0.0579431
0.0536701
0.135801
0.129953
0.124525
0.119491
0.114829
0.110507
0.106467
0.102644
0.0989664
0.0953616
0.0917634
0.0881065
0.0843499
0.080479
0.0764646
0.0723212
0.0680643
0.0637364
0.0593443
0.0549458
0.136289
0.130755
0.125625
0.120874
0.116466
0.11235
0.108478
0.104779
0.101181
0.0976159
0.0940105
0.0903252
0.0865153
0.0825716
0.0784696
0.074237
0.0698706
0.065423
0.0609198
0.0563964
0.0714411
0.0688019
0.064593
0.0590263
0.0524194
0.0451978
0.0378197
0.0306074
0.023698
0.016987
0.0651983
0.0626457
0.0589056
0.0538119
0.0477654
0.0412619
0.0347221
0.028437
0.0224892
0.0167775
0.0602543
0.0575328
0.0539996
0.0493694
0.0439198
0.0381021
0.0323192
0.0268123
0.0216666
0.0167635
0.0564348
0.0535053
0.0499607
0.045657
0.040749
0.0355693
0.0304517
0.0256272
0.0211394
0.0169015
0.0534522
0.0503541
0.046745
0.042659
0.038181
0.0335502
0.0290095
0.0247566
0.020828
0.0171292
0.0511209
0.0479019
0.0442547
0.0403012
0.0361496
0.0319613
0.027914
0.0241481
0.0206768
0.0174075
0.0493287
0.0460283
0.0423634
0.0385152
0.0345981
0.0307504
0.0270995
0.0237232
0.020624
0.0177112
0.0479918
0.0446148
0.0409606
0.0371914
0.033451
0.0298581
0.0265041
0.0234372
0.0206318
0.0179994
0.0470386
0.043608
0.0399539
0.0362508
0.0326447
0.0292379
0.0261086
0.0232689
0.0206864
0.0182649
0.0464127
0.0429228
0.0392709
0.0356158
0.032108
0.0288258
0.0258471
0.0231699
0.0207467
0.0184837
0.0460757
0.0425229
0.0388595
0.0352401
0.0317814
0.02859
0.0257056
0.0231244
0.0207943
0.0186344
0.0459774
0.042362
0.0386784
0.0350583
0.0316267
0.0284701
0.0256321
0.023098
0.0208224
0.0187073
0.0461071
0.0424036
0.0386766
0.0350462
0.0316069
0.028457
0.0256152
0.0230874
0.0208054
0.0186943
0.0464226
0.0426306
0.038843
0.0351594
0.0316953
0.0285019
0.0256242
0.0230599
0.0207385
0.0185879
0.0469212
0.0430156
0.0391464
0.0353938
0.0318552
0.0285959
0.0256485
0.023003
0.020597
0.0183712
0.0475784
0.0435499
0.0395648
0.0357146
0.0320796
0.0287203
0.0256674
0.0229041
0.0203763
0.0180375
0.0483984
0.0442039
0.0400853
0.0361064
0.032351
0.0288556
0.0256598
0.0227503
0.0200718
0.01759
0.0493635
0.0449865
0.0406941
0.0365629
0.0326411
0.0289917
0.0256239
0.0225284
0.0196784
0.017002
0.0504744
0.0458852
0.041396
0.0370668
0.0329609
0.029108
0.0255378
0.0222348
0.0191609
0.0162765
0.0517302
0.0468962
0.0421749
0.0376301
0.0332905
0.0292133
0.0254086
0.0218555
0.0185441
0.0154066
)
;

boundaryField
{
    down
    {
        type            symmetryPlane;
    }
    right
    {
        type            calculated;
        value           uniform 0;
    }
    up
    {
        type            symmetryPlane;
    }
    left
    {
        type            calculated;
        value           nonuniform List<scalar> 
30
(
0.124132
0.13088
0.136512
0.141061
0.144587
0.147179
0.148949
0.149991
0.150438
0.150371
0.149693
0.148741
0.147682
0.146532
0.145312
0.14406
0.142811
0.141578
0.140411
0.139321
0.138327
0.137459
0.136734
0.136151
0.135727
0.135482
0.135401
0.135515
0.135801
0.136289
)
;
    }
    cylinder
    {
        type            symmetry;
    }
    defaultFaces
    {
        type            empty;
    }
}


// ************************************************************************* //
