/*--------------------------------*- C++ -*----------------------------------*\
| =========                 |                                                 |
| \\      /  F ield         | OpenFOAM: The Open Source CFD Toolbox           |
|  \\    /   O peration     | Version:  2112                                  |
|   \\  /    A nd           | Website:  www.openfoam.com                      |
|    \\/     M anipulation  |                                                 |
\*---------------------------------------------------------------------------*/
FoamFile
{
    version     2.0;
    format      ascii;
    arch        "LSB;label=32;scalar=64";
    class       volScalarField;
    location    "0";
    object      Phi_nn;
}
// * * * * * * * * * * * * * * * * * * * * * * * * * * * * * * * * * * * * * //

dimensions      [0 2 -1 0 0 0 0];

internalField   nonuniform List<scalar> 
2000
(
1.71056
1.66967
1.62938
1.58967
1.55052
1.51191
1.47384
1.43629
1.39922
1.36264
1.75649
1.71944
1.68287
1.64676
1.61111
1.5759
1.54112
1.50677
1.47282
1.43927
1.80381
1.77072
1.73801
1.70568
1.67372
1.64212
1.61088
1.58
1.54945
1.51922
1.85235
1.82332
1.79461
1.7662
1.73811
1.71033
1.68286
1.65567
1.62877
1.60213
1.90199
1.8771
1.85249
1.82817
1.80411
1.78033
1.75681
1.73354
1.71049
1.68766
1.9526
1.93195
1.91156
1.89143
1.87156
1.85194
1.83254
1.81334
1.79433
1.77547
2.00413
1.9878
1.97173
1.95593
1.94038
1.92504
1.9099
1.89491
1.88005
1.86528
2.05652
2.04461
2.03298
2.02161
2.01049
1.99956
1.98877
1.97809
1.96745
1.95684
2.10974
2.10235
2.09525
2.08843
2.08182
2.07538
2.06901
2.06267
2.05631
2.0499
2.16372
2.16093
2.15846
2.15624
2.15421
2.15228
2.15035
2.14837
2.14627
2.14406
1.37213
1.2997
1.22983
1.16268
1.09836
1.03686
0.978181
0.922249
0.868977
0.818252
1.39296
1.32326
1.25596
1.19117
1.12893
1.06925
1.01206
0.957314
0.904909
0.854738
1.41729
1.35037
1.28565
1.22321
1.16305
1.10515
1.04945
0.995888
0.944368
0.894789
1.44485
1.38078
1.3187
1.25863
1.20059
1.14452
1.09036
1.03806
0.987515
0.938647
1.47542
1.41429
1.35491
1.29731
1.24146
1.18732
1.13482
1.08391
1.0345
0.986526
1.50878
1.4507
1.39414
1.33911
1.28558
1.23351
1.18283
1.1335
1.08544
1.0386
1.54475
1.48983
1.43622
1.3839
1.33285
1.28302
1.23437
1.18685
1.14039
1.09496
1.58311
1.53149
1.48097
1.43153
1.38315
1.33578
1.28938
1.24392
1.19936
1.15563
1.62367
1.57549
1.52822
1.48184
1.43632
1.39163
1.34775
1.30463
1.26226
1.22058
1.66622
1.62162
1.57776
1.53462
1.49218
1.45041
1.4093
1.36882
1.32895
1.28965
0.769653
0.72264
0.677816
0.635008
0.594032
0.554704
0.516843
0.480271
0.444822
0.410343
0.376691
0.34374
0.311379
0.279508
0.248044
0.216917
0.186067
0.155447
0.125017
0.0947486
0.805353
0.75633
0.709422
0.664483
0.62136
0.57989
0.539911
0.501263
0.463794
0.427359
0.391825
0.357071
0.322989
0.289484
0.256472
0.223883
0.191656
0.159743
0.128101
0.0966999
0.844496
0.793181
0.743929
0.696622
0.65113
0.607312
0.565023
0.524118
0.484454
0.445897
0.40832
0.371605
0.335647
0.300353
0.265639
0.231433
0.197675
0.164312
0.131301
0.0986085
0.887375
0.833499
0.781647
0.731729
0.683638
0.637252
0.592442
0.549077
0.507023
0.466154
0.426348
0.38749
0.349478
0.312218
0.275627
0.239631
0.204168
0.169184
0.134632
0.100477
0.934246
0.87755
0.822845
0.77007
0.719139
0.669951
0.622394
0.576347
0.531687
0.488296
0.446054
0.404852
0.364588
0.325167
0.286507
0.248531
0.211176
0.174384
0.138109
0.102309
0.985312
0.925547
0.867741
0.811858
0.757841
0.705607
0.65506
0.606095
0.558598
0.512457
0.467558
0.423793
0.381063
0.339271
0.298335
0.258177
0.21873
0.179936
0.141744
0.104111
1.0407
0.977634
0.916483
0.857247
0.799893
0.744362
0.690578
0.638448
0.58787
0.538739
0.490947
0.44439
0.398966
0.354583
0.311155
0.268602
0.226857
0.185857
0.145549
0.105888
1.10047
1.03388
0.969157
0.906326
0.845388
0.786309
0.729034
0.673486
0.619577
0.56721
0.516282
0.466692
0.418342
0.371138
0.324993
0.279828
0.235571
0.192158
0.149533
0.107648
1.16459
1.09428
1.02577
0.959116
0.894355
0.831482
0.770466
0.711248
0.653755
0.5979
0.543589
0.490724
0.43921
0.388952
0.339864
0.291865
0.244881
0.198846
0.153702
0.109397
1.23293
1.15874
1.08625
1.01557
0.946762
0.87986
0.814859
0.751724
0.690398
0.630808
0.572867
0.516485
0.461567
0.408023
0.355765
0.304711
0.254785
0.205921
0.158056
0.111139
1.27234
1.19646
1.12213
1.04948
0.978617
0.909583
0.842397
0.777047
0.713494
0.65168
0.591536
0.532983
0.475937
0.420317
0.366041
0.313034
0.261224
0.210546
0.160942
0.112358
1.28068
1.20523
1.1312
1.05869
0.987821
0.91864
0.85118
0.785441
0.721401
0.659023
0.598251
0.539025
0.481278
0.42494
0.369945
0.316227
0.263722
0.212374
0.162128
0.112937
1.28823
1.21319
1.13943
1.06707
0.996203
0.926903
0.859206
0.793125
0.728654
0.665768
0.604429
0.544591
0.486202
0.429206
0.373547
0.319169
0.266018
0.214043
0.163196
0.113432
1.29512
1.22044
1.14693
1.0747
1.00385
0.934455
0.866552
0.800168
0.73531
0.671966
0.610112
0.549717
0.49074
0.433138
0.376865
0.321876
0.268123
0.215562
0.164151
0.113848
1.30142
1.22708
1.15379
1.08169
1.01086
0.941371
0.873284
0.806629
0.741421
0.677662
0.61534
0.554435
0.494919
0.436758
0.379918
0.324361
0.270047
0.216939
0.164998
0.114187
1.30722
1.23317
1.16009
1.08809
1.01728
0.947713
0.87946
0.812559
0.747034
0.682897
0.620147
0.558775
0.498762
0.440087
0.382721
0.326636
0.2718
0.218179
0.165741
0.114451
1.31256
1.23877
1.16587
1.09398
1.02317
0.953536
0.885131
0.818005
0.75219
0.687706
0.624564
0.562761
0.502292
0.44314
0.385288
0.328712
0.273388
0.219288
0.166383
0.114642
1.31748
1.24393
1.1712
1.09939
1.02859
0.958884
0.890338
0.823004
0.756922
0.69212
0.628616
0.566417
0.505525
0.445932
0.387628
0.330596
0.274817
0.220268
0.166924
0.114758
1.32203
1.24869
1.1761
1.10437
1.03357
0.963798
0.895119
0.827592
0.761263
0.696166
0.632327
0.569762
0.508478
0.448476
0.389752
0.332294
0.27609
0.22112
0.167364
0.114799
1.32623
1.25309
1.18063
1.10895
1.03815
0.968314
0.899508
0.831799
0.765238
0.699867
0.635717
0.572811
0.511163
0.450781
0.391665
0.333811
0.277209
0.221846
0.167703
0.11476
1.33014
1.25716
1.18481
1.11319
1.04237
0.972466
0.903536
0.835653
0.768874
0.703244
0.638803
0.575579
0.513592
0.452855
0.393374
0.33515
0.278176
0.222444
0.167937
0.11464
1.33379
1.26095
1.18869
1.1171
1.04627
0.976287
0.907234
0.839182
0.772193
0.70632
0.641604
0.578081
0.515776
0.454707
0.394884
0.336313
0.278991
0.222912
0.168065
0.114433
1.33722
1.26451
1.19231
1.12074
1.04988
0.979812
0.910633
0.842414
0.775222
0.709114
0.644137
0.58033
0.517725
0.456343
0.3962
0.337303
0.279654
0.223251
0.168082
0.114136
1.34048
1.26786
1.19572
1.12414
1.05323
0.983076
0.913766
0.845379
0.777986
0.711648
0.646419
0.582342
0.519451
0.457773
0.397326
0.338122
0.280167
0.223457
0.167987
0.113745
1.34362
1.27107
1.19895
1.12735
1.05638
0.986119
0.916668
0.848107
0.780511
0.713947
0.648472
0.584132
0.520966
0.459005
0.39827
0.338776
0.280529
0.223532
0.167777
0.113256
1.34668
1.27418
1.20206
1.13042
1.05936
0.988982
0.919377
0.850633
0.78283
0.716038
0.650317
0.585719
0.522286
0.460052
0.399041
0.339269
0.280746
0.223475
0.167452
0.112668
1.34974
1.27725
1.2051
1.13339
1.06223
0.991708
0.921934
0.852995
0.784975
0.717949
0.65198
0.587126
0.523429
0.460928
0.399648
0.33961
0.280823
0.223291
0.167013
0.11198
1.35282
1.28032
1.20812
1.13632
1.06503
0.994346
0.924383
0.855233
0.786984
0.719714
0.653492
0.588376
0.524416
0.46165
0.400108
0.339809
0.280766
0.222985
0.166463
0.111193
1.356
1.28346
1.21117
1.13925
1.06781
0.996944
0.926772
0.857392
0.788896
0.721369
0.654883
0.589501
0.525273
0.46224
0.400436
0.33988
0.280588
0.222564
0.165807
0.11031
1.35931
1.28671
1.21432
1.14225
1.07063
0.999555
0.92915
0.859517
0.790757
0.722956
0.656192
0.59053
0.526026
0.462723
0.400654
0.339842
0.280302
0.22204
0.165054
0.109338
2.14303
2.04733
1.95269
1.85952
1.7681
1.67873
1.59171
1.50742
1.42622
1.3485
2.14321
2.04861
1.95499
1.86275
1.7722
1.68364
1.59739
1.51381
1.4333
1.35623
2.14326
2.04974
1.95713
1.86582
1.77613
1.68834
1.60279
1.51984
1.43989
1.3633
2.14324
2.05076
1.95913
1.86873
1.77987
1.69282
1.60793
1.52554
1.44604
1.3698
2.14316
2.05169
1.96101
1.8715
1.78343
1.6971
1.61282
1.53093
1.45181
1.37581
2.14306
2.05256
1.9628
1.87413
1.78684
1.70119
1.61748
1.53604
1.45722
1.38139
2.14297
2.0534
1.96453
1.87667
1.79012
1.70511
1.62193
1.54089
1.46231
1.38656
2.1429
2.05424
1.96621
1.87914
1.79328
1.70887
1.62618
1.54549
1.46711
1.39137
2.14289
2.0551
1.96788
1.88156
1.79636
1.71252
1.63027
1.54987
1.47163
1.39586
2.14295
2.05599
1.96957
1.88396
1.79939
1.71607
1.63422
1.55408
1.47592
1.40004
2.14309
2.05695
1.97128
1.88636
1.80238
1.71955
1.63806
1.55813
1.48001
1.40397
2.14333
2.05798
1.97305
1.88879
1.80538
1.723
1.64183
1.56206
1.48393
1.40768
2.14367
2.0591
1.97488
1.89126
1.8084
1.72644
1.64556
1.56592
1.48773
1.41122
2.14413
2.06031
1.9768
1.8938
1.81146
1.72991
1.64928
1.56973
1.49145
1.41463
2.14472
2.06165
1.97882
1.89643
1.8146
1.73342
1.65303
1.57354
1.49512
1.41795
2.14545
2.0631
1.98096
1.89916
1.81782
1.73701
1.65683
1.57738
1.4988
1.42124
2.14631
2.0647
1.98323
1.90202
1.82116
1.74071
1.66073
1.58129
1.50252
1.42454
2.14734
2.06644
1.98563
1.90501
1.82463
1.74453
1.66474
1.58531
1.50633
1.42791
2.14852
2.06834
1.9882
1.90816
1.82826
1.7485
1.6689
1.58947
1.51027
1.43138
2.14988
2.07041
1.99093
1.91148
1.83206
1.75265
1.67323
1.5938
1.51438
1.43503
3.01044
2.97719
2.9434
2.90897
2.87383
2.8379
2.80111
2.76338
2.72465
2.68484
2.93556
2.90508
2.87411
2.84259
2.81048
2.77771
2.74423
2.70998
2.67488
2.63885
2.85763
2.8301
2.80213
2.77369
2.74474
2.71524
2.68516
2.65444
2.62303
2.59085
2.77682
2.75243
2.72764
2.70244
2.67678
2.65067
2.62407
2.59695
2.56928
2.54103
2.69321
2.67214
2.65072
2.62892
2.60672
2.58411
2.56109
2.53766
2.51382
2.48959
2.60684
2.58929
2.57141
2.55318
2.53458
2.51562
2.49632
2.47671
2.45684
2.43678
2.51783
2.50397
2.4898
2.4753
2.46048
2.44534
2.42992
2.41431
2.3986
2.38288
2.42644
2.41642
2.40612
2.39553
2.38465
2.37352
2.3622
2.35081
2.33945
2.32823
2.33316
2.32712
2.32084
2.31432
2.30756
2.30064
2.29363
2.28666
2.27983
2.27325
2.23875
2.2368
2.23466
2.23234
2.22987
2.22733
2.22479
2.22238
2.22019
2.2183
3.50204
3.45295
3.40224
3.34973
3.29522
3.2385
3.17936
3.11762
3.05318
2.98605
3.47683
3.42859
3.37883
3.32738
3.27404
3.2186
3.16082
3.10054
3.03764
2.97213
3.44617
3.39888
3.35018
3.2999
3.24785
3.19381
3.13755
3.0789
3.01775
2.95411
3.41022
3.36398
3.31644
3.26745
3.2168
3.16429
3.10971
3.05287
2.99367
2.93214
3.36903
3.32395
3.2777
3.23012
3.18101
3.13018
3.07743
3.02259
2.96558
2.90642
3.32245
3.27871
3.23392
3.18791
3.14053
3.09157
3.04085
2.98824
2.93366
2.87712
3.27028
3.22812
3.18502
3.14084
3.0954
3.04855
3.00012
2.94999
2.8981
2.84447
3.21252
3.17221
3.13108
3.08898
3.04577
3.0013
2.95543
2.90806
2.85915
2.80867
3.14953
3.11134
3.07244
3.03269
2.99197
2.95014
2.9071
2.86275
2.81705
2.76997
3.08194
3.04612
3.00967
2.97249
2.93448
2.89552
2.85552
2.81441
2.77213
2.72862
4.29656
4.26177
4.22676
4.19149
4.15592
4.12001
4.08371
4.04698
4.00976
3.97199
3.93362
3.89457
3.8548
3.81422
3.77276
3.73036
3.68695
3.64244
3.59675
3.5498
4.28918
4.25355
4.21767
4.18152
4.14504
4.10821
4.07098
4.0333
3.99512
3.95638
3.91704
3.87703
3.83628
3.79474
3.75232
3.70897
3.6646
3.61914
3.57252
3.52463
4.2823
4.24561
4.20865
4.17138
4.13377
4.09578
4.05736
4.01847
3.97906
3.93908
3.89848
3.85719
3.81515
3.77231
3.72858
3.68391
3.63821
3.59142
3.54344
3.49421
4.27591
4.23795
4.19969
4.1611
4.12212
4.08273
4.04289
4.00254
3.96165
3.92015
3.878
3.83514
3.79151
3.74704
3.70166
3.65532
3.60792
3.5594
3.50968
3.45866
4.26998
4.23055
4.19077
4.15063
4.11007
4.06905
4.02755
3.9855
3.94287
3.89959
3.85563
3.81091
3.76538
3.71897
3.67162
3.62325
3.57379
3.52316
3.47127
3.41804
4.26447
4.22334
4.18184
4.13992
4.09755
4.05469
4.01129
3.9673
3.92268
3.87736
3.83131
3.78445
3.73672
3.68806
3.63839
3.58764
3.53573
3.48258
3.42809
3.37218
4.25931
4.21628
4.17283
4.12892
4.08452
4.03957
3.99403
3.94785
3.90098
3.85336
3.80494
3.75564
3.7054
3.65414
3.6018
3.54829
3.49353
3.43743
3.3799
3.32085
4.25444
4.20928
4.16367
4.11755
4.07088
4.02361
3.97569
3.92707
3.87769
3.82748
3.77639
3.72433
3.67125
3.61705
3.56166
3.505
3.44698
3.38752
3.32653
3.26395
4.24979
4.2023
4.1543
4.10574
4.05657
4.00674
3.95619
3.90487
3.85269
3.79961
3.74554
3.69042
3.63415
3.57665
3.51785
3.45767
3.39603
3.33286
3.26812
3.20178
4.24532
4.19528
4.14468
4.09345
4.04156
3.98892
3.93549
3.88119
3.82595
3.7697
3.71235
3.65383
3.59405
3.53293
3.4704
3.40639
3.34086
3.27377
3.20512
3.13493
4.24164
4.19002
4.1378
4.08492
4.03131
3.97692
3.92169
3.86553
3.80837
3.75015
3.69077
3.63016
3.56825
3.50498
3.44029
3.37415
3.30655
3.23748
3.16698
3.09508
4.23881
4.18669
4.13394
4.08051
4.02635
3.97138
3.91555
3.85878
3.80101
3.74216
3.68217
3.62096
3.55849
3.49471
3.42961
3.36317
3.29541
3.22636
3.15606
3.08455
4.23613
4.18351
4.13025
4.0763
4.02158
3.96605
3.90964
3.85228
3.7939
3.73445
3.67387
3.61211
3.54913
3.48492
3.41948
3.35283
3.285
3.21604
3.14599
3.0749
4.23358
4.18048
4.12672
4.07224
4.01699
3.96091
3.90393
3.84599
3.78705
3.72703
3.6659
3.60364
3.54021
3.47564
3.40994
3.34315
3.27532
3.2065
3.13673
3.06604
4.23115
4.17758
4.12333
4.06835
4.01257
3.95595
3.89842
3.83994
3.78044
3.7199
3.65827
3.59556
3.53175
3.46688
3.40099
3.33413
3.26635
3.1977
3.12821
3.05791
4.22883
4.1748
4.12007
4.0646
4.00831
3.95117
3.89312
3.83411
3.77411
3.71307
3.65099
3.58788
3.52375
3.45865
3.39263
3.32574
3.25805
3.18958
3.12037
3.05042
4.22662
4.17214
4.11695
4.06099
4.00422
3.94658
3.88802
3.82852
3.76803
3.70655
3.64407
3.58062
3.51623
3.45095
3.38484
3.31797
3.25038
3.1821
3.11315
3.04352
4.22451
4.16959
4.11395
4.05752
4.00028
3.94216
3.88313
3.82316
3.76223
3.70035
3.63752
3.57377
3.50917
3.44376
3.37761
3.31078
3.24331
3.17521
3.10651
3.03717
4.22251
4.16716
4.11107
4.0542
3.99649
3.93792
3.87844
3.81804
3.75671
3.69447
3.63133
3.56734
3.50257
3.43708
3.37092
3.30414
3.2368
3.16888
3.1004
3.03132
4.22061
4.16484
4.10833
4.05102
3.99287
3.93386
3.87396
3.81317
3.75147
3.68891
3.6255
3.56132
3.49643
3.43088
3.36473
3.29803
3.23081
3.16307
3.09479
3.02594
4.21881
4.16264
4.1057
4.04797
3.98941
3.92999
3.8697
3.80853
3.74651
3.68367
3.62004
3.55571
3.49072
3.42514
3.35903
3.29242
3.22532
3.15774
3.08965
3.02102
4.21712
4.16055
4.10321
4.04507
3.98611
3.92631
3.86565
3.80415
3.74184
3.67875
3.61494
3.55048
3.48543
3.41985
3.35378
3.28726
3.22029
3.15286
3.08495
3.01651
4.21554
4.15857
4.10084
4.04232
3.98298
3.92281
3.86181
3.80001
3.73744
3.67414
3.61018
3.54563
3.48054
3.41498
3.34897
3.28254
3.21569
3.14841
3.08066
3.01239
4.21406
4.15672
4.09861
4.03971
3.98001
3.9195
3.85819
3.79612
3.73332
3.66984
3.60577
3.54114
3.47604
3.4105
3.34456
3.27823
3.2115
3.14435
3.07675
3.00865
4.21269
4.15498
4.09651
4.03725
3.9772
3.91638
3.85479
3.79247
3.72947
3.66585
3.60167
3.53701
3.47191
3.40641
3.34054
3.2743
3.20768
3.14067
3.07321
3.00526
4.21144
4.15337
4.09454
4.03494
3.97457
3.91345
3.85159
3.78906
3.72589
3.66214
3.5979
3.5332
3.46812
3.40266
3.33687
3.27073
3.20422
3.13733
3.07
3.0022
4.2103
4.15187
4.0927
4.03278
3.9721
3.91071
3.84862
3.78588
3.72257
3.65872
3.59442
3.52972
3.46465
3.39926
3.33354
3.26749
3.20109
3.13431
3.06712
2.99946
4.20928
4.15051
4.091
4.03077
3.96981
3.90816
3.84585
3.78294
3.7195
3.65558
3.59124
3.52654
3.4615
3.39617
3.33052
3.26457
3.19827
3.13161
3.06454
2.99702
4.20837
4.14927
4.08944
4.02891
3.96768
3.90579
3.84329
3.78024
3.71668
3.6527
3.58834
3.52364
3.45865
3.39337
3.32781
3.26194
3.19575
3.12919
3.06225
2.99486
4.20758
4.14816
4.08803
4.02721
3.96572
3.90362
3.84094
3.77775
3.71411
3.65007
3.5857
3.52102
3.45607
3.39086
3.32537
3.25959
3.1935
3.12706
3.06023
2.99298
3.02182
2.9461
2.86724
2.78537
2.70058
2.61293
2.52257
2.42978
2.33508
2.23921
3.012
2.9372
2.85927
2.77832
2.69441
2.60767
2.51826
2.4265
2.33292
2.23822
3.00299
2.92894
2.85177
2.77158
2.68846
2.60254
2.51402
2.42325
2.33073
2.23716
2.99468
2.92121
2.84467
2.76513
2.68271
2.59755
2.50988
2.42004
2.32855
2.23605
2.98699
2.91398
2.83793
2.75896
2.67717
2.59272
2.50585
2.41691
2.3264
2.23493
2.97986
2.90718
2.83155
2.75306
2.67184
2.58806
2.50196
2.41388
2.32431
2.23383
2.97324
2.90079
2.82549
2.74742
2.66673
2.58358
2.49821
2.41097
2.32231
2.23278
2.9671
2.8948
2.81975
2.74206
2.66185
2.57929
2.49463
2.40818
2.3204
2.23179
2.9614
2.88917
2.81433
2.73696
2.6572
2.5752
2.49121
2.40554
2.3186
2.23089
2.95613
2.88391
2.80921
2.73212
2.65277
2.57131
2.48797
2.40305
2.31693
2.23008
2.95125
2.87899
2.80439
2.72755
2.64858
2.56763
2.48491
2.40072
2.3154
2.22938
2.94676
2.8744
2.79986
2.72323
2.64461
2.56415
2.48204
2.39854
2.314
2.22879
2.94263
2.87013
2.79561
2.71916
2.64087
2.56087
2.47934
2.39653
2.31274
2.22834
2.93885
2.86616
2.79164
2.71534
2.63735
2.5578
2.47684
2.39469
2.31164
2.22801
2.93539
2.86248
2.78792
2.71176
2.63405
2.55492
2.47451
2.39302
2.31069
2.22783
2.93224
2.85909
2.78447
2.70841
2.63097
2.55225
2.47237
2.39152
2.3099
2.22779
2.92939
2.85597
2.78125
2.70528
2.6281
2.54977
2.47042
2.39019
2.30928
2.22791
2.92683
2.8531
2.77829
2.70239
2.62544
2.5475
2.46866
2.38904
2.30882
2.22819
2.92454
2.85049
2.77555
2.69971
2.62299
2.54542
2.46708
2.38808
2.30854
2.22863
2.92251
2.84813
2.77306
2.69726
2.62075
2.54355
2.4657
2.38729
2.30844
2.22925
)
;

boundaryField
{
    down
    {
        type            symmetryPlane;
    }
    right
    {
        type            fixedValue;
        value           uniform 0;
    }
    up
    {
        type            symmetryPlane;
    }
    left
    {
        type            zeroGradient;
    }
    cylinder
    {
        type            symmetry;
    }
    defaultFaces
    {
        type            empty;
    }
}


// ************************************************************************* //
