/*--------------------------------*- C++ -*----------------------------------*\
| =========                 |                                                 |
| \\      /  F ield         | OpenFOAM: The Open Source CFD Toolbox           |
|  \\    /   O peration     | Version:  2112                                  |
|   \\  /    A nd           | Website:  www.openfoam.com                      |
|    \\/     M anipulation  |                                                 |
\*---------------------------------------------------------------------------*/
FoamFile
{
    version     2.0;
    format      ascii;
    arch        "LSB;label=32;scalar=64";
    class       volVectorField;
    location    "0";
    object      U_nn;
}
// * * * * * * * * * * * * * * * * * * * * * * * * * * * * * * * * * * * * * //

dimensions      [0 1 -1 0 0 0 0];

internalField   nonuniform List<vector> 
2000
(
(1.07198 -0.669002 -0.0159291)
(1.07473 -0.611179 -0.0147912)
(1.07796 -0.555533 -0.0131471)
(1.08155 -0.503442 -0.011179)
(1.08523 -0.455517 -0.00904657)
(1.08868 -0.411894 -0.0068799)
(1.09163 -0.372442 -0.00477813)
(1.09389 -0.336895 -0.00281183)
(1.09536 -0.304926 -0.00102709)
(1.09599 -0.276194 0.000549848)
(1.14224 -0.669594 -0.0123707)
(1.1455 -0.614796 -0.0113776)
(1.14797 -0.56107 -0.00994962)
(1.14982 -0.509996 -0.00824611)
(1.15101 -0.46239 -0.00640778)
(1.15145 -0.418583 -0.00454966)
(1.15106 -0.378608 -0.00275924)
(1.14979 -0.342333 -0.0010982)
(1.14766 -0.309535 0.000393957)
(1.14472 -0.27995 0.00169566)
(1.2129 -0.662008 -0.00841512)
(1.21703 -0.61013 -0.00751146)
(1.21901 -0.558251 -0.0062591)
(1.21928 -0.508163 -0.00479344)
(1.21807 -0.460902 -0.00323468)
(1.21551 -0.417001 -0.00168069)
(1.21174 -0.376665 -0.000204933)
(1.20687 -0.339895 0.00114204)
(1.20105 -0.306568 0.00232932)
(1.19445 -0.276489 0.00334166)
(1.28293 -0.644053 -0.00419305)
(1.28831 -0.594882 -0.00332694)
(1.29006 -0.544706 -0.00221196)
(1.28891 -0.495537 -0.000959194)
(1.28536 -0.448647 0.000333733)
(1.27981 -0.40478 0.00158884)
(1.27259 -0.364316 0.00274951)
(1.26402 -0.327389 0.003779)
(1.25441 -0.293968 0.00465719)
(1.24403 -0.263912 0.00537684)
(1.35099 -0.613332 0.000107446)
(1.35795 -0.566495 0.00097534)
(1.3597 -0.51777 0.00198042)
(1.35723 -0.469405 0.00303654)
(1.35135 -0.422918 0.004071)
(1.34272 -0.379279 0.00502897)
(1.33194 -0.339046 0.00587401)
(1.31952 -0.302476 0.00658606)
(1.30596 -0.269607 0.007158)
(1.29166 -0.240327 0.00759204)
(1.41538 -0.567403 0.00424183)
(1.42415 -0.522332 0.0051266)
(1.42601 -0.474694 0.00602841)
(1.42224 -0.426988 0.00688674)
(1.41393 -0.381001 0.00765672)
(1.40205 -0.337936 0.00831029)
(1.38748 -0.298519 0.00883472)
(1.37099 -0.263103 0.00922938)
(1.35326 -0.231756 0.0095019)
(1.33487 -0.20434 0.00966468)
(1.47411 -0.504068 0.00792112)
(1.48475 -0.460023 0.00880205)
(1.48669 -0.413052 0.00957633)
(1.48146 -0.36593 0.0102103)
(1.47048 -0.320734 0.0106901)
(1.45506 -0.278892 0.0110182)
(1.43637 -0.241263 0.0112088)
(1.4155 -0.208232 0.0112825)
(1.39334 -0.179813 0.0112623)
(1.37066 -0.155759 0.01117)
(1.52497 -0.421821 0.0108403)
(1.53734 -0.378021 0.0116536)
(1.53914 -0.331411 0.0122401)
(1.53213 -0.285079 0.0125948)
(1.51809 -0.241389 0.0127383)
(1.49869 -0.20195 0.0127068)
(1.47549 -0.167656 0.0125428)
(1.4499 -0.138798 0.0122884)
(1.42308 -0.1152 0.01198)
(1.39601 -0.0963787 0.0116469)
(1.56579 -0.320439 0.0127251)
(1.57954 -0.276336 0.0133673)
(1.58079 -0.230215 0.0136764)
(1.57155 -0.18549 0.0136783)
(1.55397 -0.144758 0.0134306)
(1.53015 -0.109671 0.013004)
(1.5021 -0.0809693 0.0124684)
(1.47157 -0.0586328 0.0118838)
(1.44005 -0.0421055 0.011296)
(1.40869 -0.0305282 0.0107362)
(1.59457 -0.201578 0.0133923)
(1.60924 -0.157284 0.01374)
(1.60948 -0.112652 0.0136763)
(1.59758 -0.0713622 0.01326)
(1.57609 -0.0360624 0.012585)
(1.54761 -0.00817235 0.0117535)
(1.51463 0.0120403 0.0108568)
(1.47933 0.0251884 0.00996515)
(1.44347 0.0324109 0.00912635)
(1.40839 0.0350436 0.00836801)
(0.459447 -0.533731 -0.0266529)
(0.461567 -0.439168 -0.0227829)
(0.473402 -0.355227 -0.0181939)
(0.49292 -0.283127 -0.0132849)
(0.517997 -0.222791 -0.00837271)
(0.546649 -0.173365 -0.00369248)
(0.577178 -0.133594 0.000594458)
(0.608223 -0.102079 0.00438998)
(0.638771 -0.0774369 0.00764687)
(0.668123 -0.0583964 0.0103566)
(0.513193 -0.541943 -0.0270815)
(0.516333 -0.452079 -0.0234495)
(0.528403 -0.372531 -0.0191144)
(0.547468 -0.304272 -0.0144512)
(0.57153 -0.247094 -0.00975814)
(0.598749 -0.200105 -0.00525851)
(0.627559 -0.162078 -0.00110707)
(0.65672 -0.131678 0.00259963)
(0.685314 -0.107612 0.00581211)
(0.71271 -0.0886997 0.00851686)
(0.568422 -0.553764 -0.0273104)
(0.572141 -0.468326 -0.0239467)
(0.583989 -0.392696 -0.0198887)
(0.602157 -0.327682 -0.0154888)
(0.624792 -0.273011 -0.0110292)
(0.650199 -0.2278 -0.00672241)
(0.676944 -0.190881 -0.0027182)
(0.703901 -0.161005 0.000887704)
(0.73024 -0.136975 0.00404332)
(0.755396 -0.117709 0.0067303)
(0.625177 -0.568306 -0.0272891)
(0.62911 -0.487002 -0.0242161)
(0.640355 -0.414836 -0.0204543)
(0.657253 -0.352525 -0.0163345)
(0.678108 -0.299788 -0.0121239)
(0.701373 -0.255788 -0.00802563)
(0.725748 -0.21944 -0.00418484)
(0.750217 -0.189597 -0.000696655)
(0.774034 -0.165165 0.00238461)
(0.796699 -0.14516 0.00503623)
(0.683548 -0.584699 -0.026964)
(0.687417 -0.507248 -0.0241964)
(0.697757 -0.438141 -0.0207454)
(0.713083 -0.378064 -0.016921)
(0.731866 -0.326773 -0.0129759)
(0.752713 -0.283513 -0.00910429)
(0.774459 -0.2473 -0.00544685)
(0.796195 -0.2171 -0.00209781)
(0.817262 -0.191927 0.000886675)
(0.837217 -0.170896 0.00348023)
(0.743649 -0.602073 -0.0262802)
(0.747264 -0.528229 -0.0238247)
(0.756481 -0.461836 -0.0206939)
(0.770006 -0.403605 -0.0171777)
(0.78649 -0.353366 -0.0135141)
(0.804699 -0.310472 -0.00988862)
(0.823604 -0.274058 -0.00643703)
(0.842404 -0.243207 -0.00325217)
(0.860525 -0.217047 -0.000391232)
(0.877586 -0.19479 0.0021166)
(0.80559 -0.619528 -0.0251848)
(0.808854 -0.549092 -0.0230389)
(0.816815 -0.485138 -0.0202316)
(0.828385 -0.428447 -0.0170322)
(0.842405 -0.378958 -0.0136643)
(0.85781 -0.336151 -0.0103041)
(0.873707 -0.299292 -0.00708196)
(0.889408 -0.267591 -0.00408857)
(0.904422 -0.240284 -0.00138124)
(0.918432 -0.216681 0.00100906)
(0.869445 -0.6361 -0.0236301)
(0.872358 -0.568925 -0.0217815)
(0.879013 -0.507207 -0.0192934)
(0.888546 -0.451832 -0.016414)
(0.900001 -0.402877 -0.0133524)
(0.912485 -0.359966 -0.0102747)
(0.92525 -0.322507 -0.00730511)
(0.937721 -0.289837 -0.00453118)
(0.949496 -0.261304 -0.0020093)
(0.960322 -0.236311 0.000228872)
(0.935223 -0.650716 -0.021579)
(0.937874 -0.586709 -0.0200046)
(0.943256 -0.527087 -0.0178226)
(0.95074 -0.472879 -0.01526)
(0.959585 -0.42432 -0.0125104)
(0.969078 -0.381195 -0.00972889)
(0.978622 -0.343059 -0.00703278)
(0.987763 -0.309379 -0.00450526)
(0.99619 -0.279614 -0.00220064)
(1.00372 -0.253256 -0.000150102)
(1.00282 -0.662157 -0.0190108)
(1.00539 -0.601259 -0.0176766)
(1.00961 -0.54365 -0.0157788)
(1.01509 -0.490522 -0.0135224)
(1.02133 -0.44229 -0.0110845)
(1.0278 -0.398909 -0.0086084)
(1.03407 -0.360088 -0.00620308)
(1.0398 -0.325428 -0.00394618)
(1.04479 -0.294494 -0.00188863)
(1.04892 -0.266866 -5.98356e-05)
(0.695159 -0.0434829 0.0125548)
(0.72002 -0.0316818 0.0142916)
(0.743088 -0.022748 0.0155731)
(0.764356 -0.0160477 0.0164492)
(0.783883 -0.011072 0.0169701)
(0.801775 -0.00741663 0.0171826)
(0.818157 -0.00476314 0.0171292)
(0.833163 -0.00286151 0.0168467)
(0.846921 -0.00151591 0.0163662)
(0.859554 -0.000572826 0.0157137)
(0.871173 8.82988e-05 0.01491)
(0.881877 0.00056251 0.0139717)
(0.891752 0.000925052 0.0129121)
(0.900872 0.00123578 0.0117412)
(0.909302 0.00154253 0.0104667)
(0.917097 0.0018837 0.00909432)
(0.924301 0.00229025 0.00762846)
(0.930956 0.00278718 0.00607237)
(0.937094 0.00339471 0.00442848)
(0.942743 0.00412925 0.00269871)
(0.736764 -0.0728114 0.0107888)
(0.757903 -0.0591413 0.0126645)
(0.777699 -0.0483382 0.0140898)
(0.796081 -0.0398139 0.015107)
(0.813053 -0.0330877 0.0157606)
(0.828669 -0.0277713 0.016094)
(0.843012 -0.0235535 0.0161475)
(0.856179 -0.0201865 0.0159569)
(0.868269 -0.0174725 0.0155533)
(0.879381 -0.0152546 0.0149629)
(0.889605 -0.0134073 0.0142077)
(0.899023 -0.0118302 0.0133053)
(0.907709 -0.0104427 0.0122701)
(0.915727 -0.00917941 0.0111135)
(0.923131 -0.00798747 0.0098443)
(0.929968 -0.00682355 0.00846952)
(0.936279 -0.00565213 0.00699456)
(0.942097 -0.0044439 0.00542367)
(0.947451 -0.0031746 0.00376018)
(0.952365 -0.00182409 0.00200681)
(0.776274 -0.100522 0.00905931)
(0.79362 -0.0848306 0.0110578)
(0.810116 -0.0720656 0.0126163)
(0.825617 -0.061672 0.013768)
(0.840063 -0.0531873 0.0145509)
(0.853454 -0.0462305 0.0150037)
(0.865824 -0.0404911 0.0151638)
(0.87723 -0.0357174 0.0150657)
(0.88774 -0.0317056 0.0147398)
(0.897423 -0.0282913 0.0142125)
(0.906348 -0.0253411 0.0135065)
(0.914581 -0.022747 0.0126402)
(0.922178 -0.0204208 0.011629)
(0.929192 -0.0182904 0.0104855)
(0.935668 -0.0162964 0.00921964)
(0.941644 -0.0143895 0.00783942)
(0.947153 -0.0125289 0.00635131)
(0.952223 -0.0106805 0.00476046)
(0.956877 -0.00881536 0.00307108)
(0.961135 -0.00690944 0.00128664)
(0.814193 -0.126456 0.00739829)
(0.827618 -0.108678 0.00949588)
(0.840736 -0.0939204 0.0111719)
(0.853319 -0.0816564 0.0124483)
(0.865237 -0.0714354 0.0133547)
(0.876423 -0.0628794 0.0139242)
(0.886861 -0.0556741 0.0141902)
(0.896562 -0.04956 0.0141848)
(0.905557 -0.0443244 0.0139373)
(0.913886 -0.0397923 0.0134741)
(0.921593 -0.0358207 0.0128177)
(0.928723 -0.0322917 0.0119875)
(0.935318 -0.0291084 0.0109996)
(0.941414 -0.0261903 0.00986754)
(0.947047 -0.0234707 0.0086023)
(0.952244 -0.0208938 0.00721291)
(0.957031 -0.0184127 0.00570675)
(0.961429 -0.0159879 0.0040899)
(0.965454 -0.0135858 0.00236738)
(0.969123 -0.0111779 0.000543439)
(0.8511 -0.150548 0.00584242)
(0.860407 -0.130694 0.00800514)
(0.870009 -0.113964 0.00977564)
(0.879587 -0.0998598 0.011162)
(0.888926 -0.0879444 0.0121832)
(0.89789 -0.077841 0.0128647)
(0.906402 -0.0692299 0.0132346)
(0.914425 -0.0618424 0.0133216)
(0.921946 -0.0554543 0.0131532)
(0.928974 -0.049879 0.0127547)
(0.935524 -0.0449617 0.0121485)
(0.941617 -0.0405735 0.0113543)
(0.947277 -0.0366075 0.0103889)
(0.952527 -0.0329739 0.00926641)
(0.957387 -0.0295979 0.00799888)
(0.961875 -0.0264164 0.00659621)
(0.966007 -0.023376 0.00506667)
(0.969798 -0.0204315 0.00341722)
(0.973257 -0.0175442 0.0016537)
(0.976393 -0.0146813 -0.000218871)
(0.887608 -0.172766 0.00443575)
(0.892527 -0.15092 0.00661691)
(0.898409 -0.132283 0.00844941)
(0.904833 -0.116397 0.00992411)
(0.911492 -0.102844 0.0110466)
(0.918173 -0.0912516 0.0118323)
(0.924729 -0.0812956 0.0123023)
(0.931066 -0.0726984 0.0124805)
(0.937128 -0.0652241 0.0123912)
(0.942882 -0.0586734 0.0120581)
(0.948313 -0.0528788 0.0115027)
(0.953418 -0.0476996 0.0107445)
(0.958196 -0.0430175 0.00980082)
(0.962654 -0.0387331 0.00868627)
(0.966799 -0.0347625 0.00741354)
(0.970635 -0.0310348 0.00599341)
(0.97417 -0.0274895 0.00443499)
(0.977407 -0.0240753 0.00274608)
(0.980351 -0.0207484 0.000933347)
(0.983004 -0.017471 -0.000997413)
(0.92432 -0.193047 0.00323106)
(0.924512 -0.169379 0.00536912)
(0.926404 -0.148956 0.00721949)
(0.929466 -0.131379 0.00875221)
(0.933292 -0.116261 0.00995622)
(0.93758 -0.103244 0.0108341)
(0.942109 -0.0920038 0.0113977)
(0.946722 -0.0822571 0.011664)
(0.951308 -0.0737569 0.011653)
(0.955792 -0.0662917 0.0113855)
(0.960122 -0.0596808 0.0108815)
(0.964265 -0.053771 0.0101597)
(0.968199 -0.0484323 0.00923723)
(0.971908 -0.0435546 0.0081291)
(0.975381 -0.0390445 0.0068485)
(0.978613 -0.0348224 0.00540688)
(0.981596 -0.0308206 0.00381414)
(0.984326 -0.0269811 0.00207889)
(0.986798 -0.0232545 0.000208597)
(0.989008 -0.019598 -0.00179012)
(0.96179 -0.211243 0.00228921)
(0.956864 -0.18604 0.0043068)
(0.954439 -0.164023 0.00611777)
(0.953875 -0.144888 0.00766782)
(0.954662 -0.128302 0.00892578)
(0.956403 -0.113935 0.00987831)
(0.958795 -0.101475 0.0105249)
(0.961609 -0.0906366 0.010874)
(0.964674 -0.0811661 0.0109391)
(0.967866 -0.0728408 0.0107368)
(0.971093 -0.0654678 0.0102845)
(0.974286 -0.0588811 0.00959946)
(0.977396 -0.0529387 0.00869807)
(0.980384 -0.047519 0.00759525)
(0.983222 -0.0425184 0.00630445)
(0.985885 -0.0378484 0.00483764)
(0.988354 -0.0334333 0.0032054)
(0.990614 -0.029208 0.00141706)
(0.992651 -0.025117 -0.000519069)
(0.994452 -0.0211124 -0.00259556)
(1.00048 -0.227073 0.00167589)
(0.990019 -0.200781 0.00348087)
(0.982909 -0.177464 0.00518165)
(0.978411 -0.156965 0.00669699)
(0.97591 -0.139043 0.00797234)
(0.974909 -0.123421 0.00897508)
(0.975015 -0.109812 0.0096896)
(0.975923 -0.0979414 0.0101127)
(0.977395 -0.0875533 0.0102496)
(0.979251 -0.0784178 0.010111)
(0.981351 -0.0703312 0.00971026)
(0.98359 -0.0631154 0.00906234)
(0.985885 -0.0566163 0.0081821)
(0.98817 -0.0507005 0.00708386)
(0.990396 -0.0452538 0.00578098)
(0.992519 -0.0401778 0.00428571)
(0.994506 -0.0353883 0.00260913)
(0.996328 -0.0308127 0.000761274)
(0.997959 -0.026389 -0.00124876)
(0.999379 -0.0220636 -0.00341272)
(1.04073 -0.240067 0.00145563)
(1.02432 -0.213351 0.00294499)
(1.01215 -0.189173 0.00445276)
(1.00338 -0.167596 0.00587005)
(0.997304 -0.148525 0.00711659)
(0.993331 -0.131771 0.00813752)
(0.990972 -0.1171 0.00889894)
(0.989838 -0.104262 0.00938332)
(0.98962 -0.0930086 0.00958509)
(0.990074 -0.0831097 0.00950696)
(0.991008 -0.0743538 0.00915697)
(0.992272 -0.0665521 0.00854621)
(0.993747 -0.0595385 0.0076873)
(0.995338 -0.0531682 0.00659326)
(0.996968 -0.0473154 0.00527687)
(0.998574 -0.0418716 0.00375034)
(1.0001 -0.0367432 0.00202507)
(1.00151 -0.0318497 0.000111681)
(1.00277 -0.0271219 -0.00198001)
(1.00383 -0.0225001 -0.00424089)
(1.07419 -0.236857 0.00221353)
(1.05393 -0.212299 0.00330281)
(1.03818 -0.189521 0.00449344)
(1.02619 -0.1688 0.00567041)
(1.01725 -0.150206 0.00674333)
(1.01077 -0.133671 0.00764554)
(1.00623 -0.119048 0.00833129)
(1.00323 -0.106151 0.00877198)
(1.00141 -0.0947756 0.00895232)
(1.0005 -0.0847194 0.0088669)
(1.00027 -0.0757897 0.00851711)
(1.00055 -0.0678094 0.00790892)
(1.00118 -0.0606186 0.00705098)
(1.00204 -0.0540753 0.00595349)
(1.00304 -0.0480547 0.00462724)
(1.0041 -0.0424475 0.00308313)
(1.00514 -0.0371589 0.00133182)
(1.00612 -0.0321065 -0.000616391)
(1.00698 -0.0272193 -0.0027517)
(1.00768 -0.0224359 -0.00506478)
(1.09578 -0.219503 0.00341702)
(1.07447 -0.198786 0.00415112)
(1.05737 -0.179091 0.00500979)
(1.04385 -0.160807 0.00589144)
(1.03335 -0.144112 0.00671223)
(1.02532 -0.12904 0.00740685)
(1.01933 -0.115535 0.00792728)
(1.01498 -0.103483 0.0082405)
(1.01193 -0.0927422 0.00832568)
(1.00992 -0.0831587 0.00817156)
(1.00871 -0.0745783 0.00777397)
(1.00812 -0.0668531 0.00713381)
(1.00798 -0.0598459 0.00625546)
(1.00817 -0.0534318 0.00514554)
(1.00857 -0.0474985 0.00381207)
(1.00909 -0.0419464 0.0022638)
(1.00966 -0.0366879 0.000509827)
(1.01021 -0.0316458 -0.00144068)
(1.01068 -0.0267531 -0.00357863)
(1.01103 -0.0219515 -0.00589513)
(1.11228 -0.201117 0.00438075)
(1.09061 -0.184027 0.00482098)
(1.07277 -0.167312 0.00539759)
(1.05829 -0.151438 0.00602269)
(1.04669 -0.136669 0.00662009)
(1.03754 -0.123123 0.00712736)
(1.03044 -0.110815 0.00749595)
(1.02503 -0.0996983 0.00769001)
(1.02101 -0.089685 0.00768464)
(1.01811 -0.0806656 0.00746395)
(1.01609 -0.0725212 0.0070191)
(1.01477 -0.0651325 0.00634667)
(1.01399 -0.0583838 0.00544725)
(1.0136 -0.0521673 0.00432423)
(1.01349 -0.0463835 0.00298303)
(1.01355 -0.0409429 0.00143034)
(1.01371 -0.0357651 -0.000326253)
(1.01388 -0.0307789 -0.00227871)
(1.01401 -0.0259217 -0.00441869)
(1.01405 -0.0211386 -0.00673781)
(1.1242 -0.182374 0.00509887)
(1.10275 -0.168607 0.00530171)
(1.0847 -0.154687 0.00564388)
(1.06972 -0.141127 0.00605076)
(1.05746 -0.128249 0.0064543)
(1.04756 -0.116233 0.006796)
(1.03968 -0.105156 0.00702808)
(1.03349 -0.0950249 0.00711325)
(1.02872 -0.0857976 0.00702378)
(1.02512 -0.0774044 0.00674023)
(1.02246 -0.0697589 0.00625002)
(1.02056 -0.0627673 0.00554612)
(1.01925 -0.0563349 0.00462578)
(1.01838 -0.0503699 0.00348957)
(1.01784 -0.0447855 0.00214052)
(1.01752 -0.0395021 0.000583425)
(1.01732 -0.0344468 -0.00117561)
(1.01717 -0.0295545 -0.00312961)
(1.01701 -0.0247673 -0.00527105)
(1.01677 -0.0200339 -0.00759203)
(1.13214 -0.163876 0.00558393)
(1.11134 -0.153057 0.005598)
(1.09351 -0.141681 0.00574822)
(1.07845 -0.130276 0.00597223)
(1.06589 -0.119198 0.00621006)
(1.05557 -0.10867 0.00640772)
(1.04718 -0.0988145 0.00651907)
(1.04046 -0.0896808 0.00650641)
(1.03516 -0.0812664 0.00634023)
(1.03104 -0.0735347 0.00599851)
(1.0279 -0.0664276 0.00546571)
(1.02554 -0.0598745 0.00473181)
(1.02381 -0.0537995 0.00379128)
(1.02256 -0.0481258 0.00264219)
(1.02166 -0.0427788 0.00128543)
(1.02102 -0.037688 -0.00027591)
(1.02052 -0.0327883 -0.00203713)
(1.0201 -0.0280204 -0.0039923)
(1.01968 -0.0233311 -0.00613465)
(1.01921 -0.0186731 -0.00845682)
(1.13672 -0.146121 0.00586172)
(1.11689 -0.137829 0.00572635)
(1.09961 -0.128698 0.00572033)
(1.08479 -0.119242 0.0057922)
(1.07224 -0.109828 0.00588955)
(1.06176 -0.100704 0.00596302)
(1.05312 -0.0920245 0.00596865)
(1.04609 -0.083869 0.00586906)
(1.04044 -0.0762663 0.00563375)
(1.03596 -0.0692071 0.00523886)
(1.03246 -0.0626571 0.00466662)
(1.02977 -0.0565658 0.00390457)
(1.02772 -0.0508739 0.00294485)
(1.02617 -0.0455182 0.00178339)
(1.02499 -0.040435 0.000419208)
(1.02409 -0.0355627 -0.00114619)
(1.02335 -0.0308432 -0.00290936)
(1.02271 -0.026223 -0.00486537)
(1.02207 -0.0216534 -0.0070082)
(1.02139 -0.017091 -0.00933102)
(1.13855 -0.129483 0.00596586)
(1.11992 -0.123283 0.00571108)
(1.10343 -0.116071 0.00557724)
(1.08909 -0.108327 0.00552223)
(1.07678 -0.100409 0.00550048)
(1.06637 -0.0925757 0.00546704)
(1.05767 -0.084996 0.00538035)
(1.0505 -0.0777729 0.00520381)
(1.04466 -0.0709571 0.00490647)
(1.03997 -0.0645605 0.00446325)
(1.03624 -0.0585679 0.00385465)
(1.03332 -0.0529458 0.00306633)
(1.03104 -0.0476489 0.00208847)
(1.02927 -0.0426258 0.000915164)
(1.02788 -0.0378225 -0.000456193)
(1.02677 -0.0331855 -0.00202551)
(1.02584 -0.0286631 -0.00379049)
(1.02501 -0.0242071 -0.00574715)
(1.0242 -0.0197731 -0.00789017)
(1.02335 -0.0153214 -0.0102132)
(1.13823 -0.114212 0.00593287)
(1.12091 -0.109678 0.00558037)
(1.10538 -0.104055 0.00534018)
(1.09168 -0.0977713 0.00517808)
(1.07979 -0.0911643 0.00505442)
(1.06961 -0.0844849 0.00492833)
(1.06102 -0.0779095 0.00476062)
(1.05386 -0.0715528 0.00451567)
(1.04797 -0.0654803 0.00416249)
(1.04318 -0.0597193 0.00367519)
(1.03933 -0.0542694 0.003033)
(1.03626 -0.0491102 0.00222004)
(1.03383 -0.0442081 0.00122491)
(1.03191 -0.0395217 4.01397e-05)
(1.03037 -0.0350053 -0.00133829)
(1.02911 -0.0306122 -0.00291153)
(1.02803 -0.0262966 -0.00467837)
(1.02704 -0.022015 -0.00663566)
(1.02609 -0.0177272 -0.00877876)
(1.02509 -0.0133966 -0.0111019)
(1.1363 -0.100437 0.00579827)
(1.12034 -0.0971787 0.00536294)
(1.10583 -0.0928274 0.00503191)
(1.09289 -0.087755 0.0047775)
(1.08153 -0.0822654 0.00456516)
(1.07172 -0.076594 0.00435759)
(1.06336 -0.070914 0.00411786)
(1.05632 -0.0653441 0.00381141)
(1.05048 -0.0599578 0.0034074)
(1.04569 -0.0547925 0.00287945)
(1.0418 -0.0498583 0.00220583)
(1.03867 -0.0451448 0.00136945)
(1.03616 -0.0406274 0.000357588)
(1.03414 -0.0362728 -0.00083853)
(1.0325 -0.0320421 -0.00222417)
(1.03113 -0.0278945 -0.0038016)
(1.02994 -0.0237892 -0.00557055)
(1.02884 -0.0196868 -0.00752867)
(1.02776 -0.0155506 -0.00967198)
(1.02665 -0.0113471 -0.0119952)
(1.13322 -0.0881907 0.00559403)
(1.1186 -0.0858634 0.00508565)
(1.10515 -0.0824953 0.00467452)
(1.09302 -0.0783984 0.00433841)
(1.08228 -0.0738375 0.00404709)
(1.0729 -0.0690261 0.00376642)
(1.06485 -0.064127 0.00346146)
(1.05803 -0.0592565 0.00309873)
(1.05233 -0.0544906 0.00264766)
(1.04761 -0.0498722 0.00208156)
(1.04375 -0.045418 0.00137798)
(1.04062 -0.0411244 0.000518865)
(1.03808 -0.0369738 -0.000509605)
(1.03602 -0.0329388 -0.00171732)
(1.03432 -0.0289861 -0.00311063)
(1.03288 -0.0250797 -0.00469277)
(1.03161 -0.0211827 -0.00646435)
(1.03042 -0.0172594 -0.00842378)
(1.02925 -0.0132761 -0.0105677)
(1.02804 -0.00920187 -0.0128912)
(1.12939 -0.0774251 0.00534712)
(1.11606 -0.075741 0.00477191)
(1.10365 -0.0731043 0.00428791)
(1.09235 -0.0697697 0.00387747)
(1.08224 -0.0659617 0.00351405)
(1.07337 -0.0618678 0.00316624)
(1.06569 -0.0576358 0.00280092)
(1.05914 -0.053375 0.00238559)
(1.05362 -0.0491595 0.00189003)
(1.04904 -0.0450338 0.00128735)
(1.04527 -0.0410179 0.000554572)
(1.04218 -0.0371128 -0.000327156)
(1.03966 -0.0333051 -0.00137257)
(1.03759 -0.0295721 -0.0025925)
(1.03587 -0.0258845 -0.00399426)
(1.03439 -0.0222099 -0.00558196)
(1.03307 -0.0185148 -0.00735699)
(1.03182 -0.0147663 -0.00931845)
(1.03059 -0.0109334 -0.0114635)
(1.02929 -0.00698729 -0.0137879)
(1.12512 -0.0680409 0.00507907)
(1.11299 -0.0667681 0.004441)
(1.10158 -0.0646517 0.00388894)
(1.09109 -0.0618941 0.00340919)
(1.08164 -0.0586812 0.0029784)
(1.07328 -0.0551731 0.00256756)
(1.066 -0.0515001 0.00214515)
(1.05976 -0.0477612 0.00167962)
(1.05448 -0.0440256 0.00114109)
(1.05007 -0.0403364 0.000502584)
(1.04642 -0.0367142 -0.000259306)
(1.04342 -0.0331622 -0.00116406)
(1.04096 -0.0296699 -0.00222718)
(1.03892 -0.0262171 -0.00346035)
(1.0372 -0.0227777 -0.00487167)
(1.03571 -0.019322 -0.00646606)
(1.03436 -0.0158188 -0.00824563)
(1.03307 -0.0122378 -0.0102101)
(1.03178 -0.00854958 -0.0123573)
(1.03042 -0.00472758 -0.0146832)
(1.12067 -0.0599074 0.00480623)
(1.10964 -0.0588664 0.00410793)
(1.09916 -0.0570993 0.0034911)
(1.08945 -0.0547633 0.00294547)
(1.08064 -0.0520085 0.00245051)
(1.0728 -0.0489688 0.00197936)
(1.06593 -0.0457556 0.00150196)
(1.06002 -0.042456 0.000987605)
(1.05501 -0.0391323 0.000406803)
(1.0508 -0.0358238 -0.000267463)
(1.0473 -0.0325501 -0.00105892)
(1.04441 -0.0293145 -0.00198756)
(1.04202 -0.0261075 -0.00306956)
(1.04003 -0.022911 -0.00431728)
(1.03834 -0.0197003 -0.00573958)
(1.03686 -0.0164476 -0.00734207)
(1.0355 -0.0131239 -0.00912753)
(1.03419 -0.00970003 -0.0110963)
(1.03286 -0.00614863 -0.0132466)
(1.03145 -0.0024444 -0.015575)
(1.1162 -0.052881 0.00454028)
(1.10617 -0.0519377 0.00378377)
(1.09656 -0.0503858 0.00310456)
(1.08758 -0.0483447 0.00249549)
(1.07938 -0.0459329 0.00193858)
(1.07205 -0.0432596 0.0014089)
(1.0656 -0.0404182 0.000877752)
(1.06003 -0.0374829 0.000315242)
(1.05528 -0.0345076 -0.000307748)
(1.05129 -0.0315267 -0.00101821)
(1.04796 -0.0285571 -0.0018401)
(1.0452 -0.0256009 -0.00279385)
(1.04291 -0.0226488 -0.00389618)
(1.04099 -0.0196831 -0.00516006)
(1.03935 -0.0166801 -0.00659499)
(1.03789 -0.0136131 -0.00820721)
(1.03653 -0.0104543 -0.0100001)
(1.0352 -0.00717579 -0.0119745)
(1.03384 -0.00375131 -0.0141293)
(1.0324 -0.000156749 -0.0164614)
(1.11185 -0.0468177 0.00428909)
(1.10273 -0.0458756 0.00347611)
(1.09391 -0.0444368 0.00273649)
(1.08561 -0.04259 0.00206586)
(1.07798 -0.0404269 0.00144862)
(1.07113 -0.0380342 0.000861623)
(1.06509 -0.0354882 0.000277433)
(1.05985 -0.0328505 -0.000333042)
(1.05538 -0.0301661 -0.000998534)
(1.05161 -0.0274636 -0.00174596)
(1.04846 -0.0247562 -0.00259944)
(1.04585 -0.022044 -0.00357976)
(1.04366 -0.0193166 -0.00470407)
(1.04182 -0.0165561 -0.0059859)
(1.04023 -0.0137392 -0.00743528)
(1.03881 -0.0108397 -0.00905903)
(1.03746 -0.00783023 -0.0108611)
(1.03613 -0.00468391 -0.0128428)
(1.03476 -0.00137524 -0.0150034)
(1.03327 0.00211904 -0.0173404)
(1.10769 -0.0415823 0.00405747)
(1.09939 -0.0405741 0.00318977)
(1.09129 -0.0391729 0.0023915)
(1.08361 -0.0374426 0.00166093)
(1.07653 -0.0354523 0.000984652)
(1.07014 -0.0332693 0.000341214)
(1.06448 -0.0309541 -0.000295602)
(1.05957 -0.0285563 -0.000954115)
(1.05537 -0.026112 -0.00166265)
(1.05182 -0.0236435 -0.00244799)
(1.04886 -0.0211597 -0.00333437)
(1.04639 -0.018658 -0.00434282)
(1.04432 -0.0161266 -0.00549089)
(1.04257 -0.0135465 -0.00679253)
(1.04104 -0.0108942 -0.00825828)
(1.03965 -0.00814362 -0.00989545)
(1.03833 -0.00526759 -0.0117085)
(1.037 -0.00223967 -0.0136992)
(1.03561 0.000965076 -0.0158673)
(1.0341 0.00436931 -0.0182106)
(1.10378 -0.0370528 0.0038479)
(1.09621 -0.0359337 0.00292734)
(1.08877 -0.0345153 0.00207217)
(1.08167 -0.0328425 0.00128316)
(1.07508 -0.0309654 0.000548985)
(1.06912 -0.0289346 -0.000150161)
(1.06383 -0.0267966 -0.00083933)
(1.05923 -0.0245896 -0.00154607)
(1.05529 -0.0223412 -0.00229825)
(1.05197 -0.0200673 -0.00312252)
(1.04918 -0.0177723 -0.00404314)
(1.04686 -0.0154507 -0.00508133)
(1.04491 -0.0130883 -0.00625494)
(1.04325 -0.0106651 -0.00757829)
(1.04179 -0.00815678 -0.00906235)
(1.04044 -0.0055369 -0.0107149)
(1.03915 -0.0027784 -0.0125407)
(1.03782 0.000145061 -0.0145422)
(1.03642 0.0032581 -0.0167193)
(1.03489 0.00658298 -0.0190704)
(1.10012 -0.0331232 0.00366125)
(1.09323 -0.031864 0.00268976)
(1.08638 -0.0303899 0.00177947)
(1.07981 -0.0287305 0.000933495)
(1.07369 -0.0269205 0.000142538)
(1.06812 -0.024996 -0.000611636)
(1.06318 -0.0229911 -0.00135292)
(1.05888 -0.0209338 -0.00210807)
(1.05519 -0.0188436 -0.00290453)
(1.05208 -0.0167302 -0.00376871)
(1.04947 -0.0145933 -0.00472485)
(1.04729 -0.012424 -0.00579433)
(1.04546 -0.0102061 -0.0069952)
(1.04389 -0.0079179 -0.00834212)
(1.04249 -0.00553405 -0.00984638)
(1.0412 -0.00302758 -0.0115161)
(1.03993 -0.00037116 -0.0133566)
(1.03861 0.00246156 -0.0153706)
(1.0372 0.00549508 -0.0175585)
(1.03565 0.0087514 -0.0199189)
(1.09672 -0.029703 0.00349719)
(1.09044 -0.028286 0.00247686)
(1.08414 -0.0267293 0.00151325)
(1.07806 -0.0250508 0.000611793)
(1.07237 -0.0232723 -0.000234851)
(1.06718 -0.0214178 -0.00104337)
(1.06256 -0.0195105 -0.0018365)
(1.05853 -0.0175689 -0.00264023)
(1.05509 -0.0156051 -0.00348149)
(1.05218 -0.0136227 -0.00438647)
(1.04974 -0.0116171 -0.00537933)
(1.0477 -0.00957587 -0.00648153)
(1.04598 -0.00748034 -0.00771128)
(1.0445 -0.00530707 -0.0090835)
(1.04318 -0.00302964 -0.0106098)
(1.04193 -0.000620293 -0.0122986)
(1.04068 0.00194871 -0.0141555)
(1.03938 0.0047039 -0.0161837)
(1.03796 0.00766978 -0.0183839)
(1.03638 0.0108682 -0.0207551)
(1.09356 -0.026717 0.00335468)
(1.08784 -0.0251316 0.00228764)
(1.08205 -0.0234738 0.00127256)
(1.07642 -0.0217522 0.000317114)
(1.07113 -0.0199782 -0.000584118)
(1.06629 -0.0181653 -0.00144627)
(1.06198 -0.0163268 -0.00229095)
(1.05822 -0.0144731 -0.00314334)
(1.055 -0.012609 -0.00402986)
(1.05228 -0.0107327 -0.0049764)
(1.05001 -0.00883518 -0.00600704)
(1.04811 -0.00690061 -0.00714324)
(1.0465 -0.00490781 -0.00840335)
(1.04511 -0.00283153 -0.00980246)
(1.04385 -0.000644077 -0.0113524)
(1.04264 0.00168317 -0.013062)
(1.04142 0.00417846 -0.0149371)
(1.04013 0.0068686 -0.0169811)
(1.03871 0.00977817 -0.0191951)
(1.03711 0.012929 -0.0215785)
(1.37501 0.0351005 0.00766338)
(1.37857 -0.0206163 0.0101523)
(1.37054 -0.0779522 0.0112852)
(1.3507 -0.131091 0.0111024)
(1.32075 -0.175941 0.00992564)
(1.28334 -0.210428 0.00818237)
(1.24127 -0.234221 0.00627114)
(1.19689 -0.24818 0.00449612)
(1.152 -0.253771 0.00305477)
(1.10776 -0.252602 0.00205232)
(1.34353 0.0333156 0.00700883)
(1.34958 -0.0124587 0.00953617)
(1.34602 -0.0606153 0.0108656)
(1.33214 -0.106647 0.0109991)
(1.30898 -0.147075 0.0101939)
(1.27858 -0.179784 0.00881602)
(1.2433 -0.203983 0.00721935)
(1.20528 -0.219931 0.00568186)
(1.16621 -0.228544 0.00438913)
(1.12727 -0.231018 0.00344465)
(1.31456 0.0298213 0.0064493)
(1.32217 -0.00780753 0.00897558)
(1.3219 -0.047977 0.0104341)
(1.31273 -0.0872916 0.010801)
(1.29518 -0.122954 0.010285)
(1.27077 -0.153034 0.00920297)
(1.24147 -0.176543 0.00787229)
(1.20918 -0.193335 0.00654825)
(1.17546 -0.203885 0.00540504)
(1.14147 -0.209015 0.0045424)
(1.28823 0.0253919 0.00597824)
(1.29669 -0.00566165 0.00847692)
(1.29874 -0.0390586 0.0100145)
(1.2932 -0.0722898 0.0105494)
(1.28018 -0.103201 0.0102528)
(1.2608 -0.130168 0.00940271)
(1.23665 -0.152188 0.00828667)
(1.20939 -0.168887 0.00714154)
(1.18046 -0.180419 0.00613209)
(1.15098 -0.187294 0.00535438)
(1.26447 0.02057 0.005587)
(1.27328 -0.00522455 0.00804096)
(1.27691 -0.0329862 0.00962148)
(1.27409 -0.0608801 0.0102742)
(1.26467 -0.0873067 0.0101406)
(1.24941 -0.11098 0.00946722)
(1.22961 -0.131001 0.00851713)
(1.20669 -0.1469 0.0075126)
(1.18197 -0.158627 0.00661131)
(1.15649 -0.166453 0.00590694)
(1.24316 0.0157134 0.00526613)
(1.25197 -0.00589342 0.00766506)
(1.25662 -0.0290263 0.0092631)
(1.25579 -0.052346 0.00999621)
(1.24917 -0.0747012 0.0099816)
(1.23724 -0.0951295 0.00943936)
(1.22105 -0.112888 0.00861244)
(1.20181 -0.127509 0.00771131)
(1.1807 -0.138828 0.00688873)
(1.15871 -0.146951 0.00623747)
(1.22409 0.0110423 0.00500624)
(1.23269 -0.00723099 0.00734456)
(1.23793 -0.0265918 0.00894273)
(1.23855 -0.0460564 0.0097289)
(1.23407 -0.0648198 0.00979976)
(1.22481 -0.0822002 0.00935279)
(1.21156 -0.0976285 0.00861359)
(1.19539 -0.110693 0.00778287)
(1.17733 -0.121184 0.00701001)
(1.15832 -0.129103 0.00638822)
(1.20705 0.0066793 0.00479845)
(1.21529 -0.00893214 0.00707385)
(1.22085 -0.0252303 0.00866061)
(1.22249 -0.0414822 0.00948034)
(1.21965 -0.0571415 0.00961191)
(1.21248 -0.0717564 0.00923287)
(1.20162 -0.0849235 0.00855341)
(1.18797 -0.0963125 0.00776579)
(1.17247 -0.105715 0.00701694)
(1.15596 -0.113076 0.00640139)
(1.1918 0.00268108 0.00463454)
(1.19963 -0.0107922 0.00684693)
(1.20531 -0.0246041 0.00841504)
(1.20765 -0.0381964 0.00925474)
(1.20605 -0.0512114 0.00942915)
(1.20053 -0.0633779 0.00909788)
(1.1916 -0.0744382 0.00845708)
(1.18001 -0.0841513 0.00769123)
(1.16661 -0.0923366 0.0069453)
(1.15218 -0.0989136 0.0063156)
(1.17813 -0.000938188 0.0045071)
(1.18552 -0.0126798 0.00665783)
(1.1912 -0.0244679 0.00820307)
(1.19403 -0.0358651 0.00905359)
(1.19337 -0.0466483 0.00925833)
(1.18915 -0.0566842 0.00896048)
(1.18176 -0.0658367 0.00834309)
(1.17186 -0.0739507 0.0075833)
(1.16018 -0.0808858 0.00682419)
(1.14747 -0.0865593 0.00616396)
(1.16584 -0.00419025 0.00440947)
(1.17279 -0.0145157 0.00650081)
(1.1784 -0.0246479 0.00802112)
(1.18156 -0.034233 0.00887657)
(1.18162 -0.0431425 0.00910315)
(1.17844 -0.0513456 0.0088289)
(1.1723 -0.0588046 0.00822448)
(1.16376 -0.0654412 0.00745986)
(1.1535 -0.0711597 0.00667615)
(1.1422 -0.0758883 0.0059733)
(1.15473 -0.00710144 0.00433573)
(1.16127 -0.0162559 0.00637046)
(1.16677 -0.0250241 0.0078653)
(1.17017 -0.0331095 0.00872213)