/*--------------------------------*- C++ -*----------------------------------*\
| =========                 |                                                 |
| \\      /  F ield         | OpenFOAM: The Open Source CFD Toolbox           |
|  \\    /   O peration     | Version:  2206                                  |
|   \\  /    A nd           | Website:  www.openfoam.com                      |
|    \\/     M anipulation  |                                                 |
\*---------------------------------------------------------------------------*/
FoamFile
{
    version     2.0;
    format      ascii;
    arch        "LSB;label=32;scalar=64";
    class       volScalarField;
    location    "0";
    object      error_div_U;
}
// * * * * * * * * * * * * * * * * * * * * * * * * * * * * * * * * * * * * * //

dimensions      [0 0 -1 0 0 0 0];

internalField   nonuniform List<scalar> 
2000
(
12.2861
0.164721
0.162377
0.162838
0.165075
0.168331
0.172378
0.177446
0.185361
0.241942
11.3071
0.153332
0.150643
0.150686
0.15222
0.154824
0.158153
0.162036
0.166796
0.22366
10.2501
0.142073
0.139141
0.138681
0.139655
0.141338
0.143512
0.145396
0.145915
0.202248
9.12145
0.130968
0.127905
0.127075
0.127679
0.128928
0.130789
0.133167
0.136195
0.183377
7.92827
0.120167
0.117104
0.116071
0.11612
0.11702
0.118418
0.120332
0.122757
0.157809
6.67766
0.1097
0.106751
0.105475
0.105196
0.105547
0.106342
0.107441
0.108805
0.135187
5.37794
0.0998124
0.0970767
0.0955198
0.094825
0.0947161
0.0948357
0.0952888
0.0958108
0.115398
4.03711
0.0902703
0.0878752
0.0863845
0.0853375
0.0848011
0.0843978
0.0842585
0.08422
0.0977185
2.66348
0.081508
0.0793376
0.0778581
0.07678
0.0758254
0.0752419
0.0746008
0.0740972
0.0819172
1.26562
0.0732149
0.0717302
0.070329
0.0692391
0.0681096
0.0672001
0.0662906
0.0654708
0.0675814
16.5018
0.734249
0.764904
0.788791
0.806122
0.817407
0.823212
0.824099
0.820631
0.808639
16.9184
0.249818
0.251669
0.257322
0.264932
0.273491
0.282355
0.291099
0.299392
0.306656
16.7993
0.242849
0.244134
0.249206
0.256302
0.264368
0.272812
0.281254
0.289474
0.300308
16.5804
0.235036
0.235798
0.240285
0.246793
0.254318
0.26224
0.270224
0.278089
0.291151
16.2609
0.226534
0.226752
0.230697
0.236625
0.243525
0.250784
0.258088
0.265267
0.278068
15.8408
0.21743
0.217192
0.220623
0.225996
0.232311
0.238901
0.245305
0.251228
0.258113
15.3208
0.207713
0.20713
0.210143
0.215104
0.221078
0.227383
0.233308
0.237977
0.228218
14.7025
0.197533
0.196519
0.199136
0.203819
0.209776
0.216638
0.224072
0.23129
0.195614
13.9882
0.18698
0.185429
0.18746
0.191544
0.197082
0.20417
0.214041
0.230352
0.197842
13.1814
0.176011
0.173945
0.175125
0.178122
0.181892
0.185294
0.186371
0.18051
0.165321
0.804926
0.82692
0.83254
0.833446
0.829752
0.821614
0.809228
0.79286
0.772783
0.749287
0.722649
0.693123
0.660981
0.626463
0.589812
0.551272
0.51104
0.469352
0.426394
10.1023
0.302089
0.32315
0.329225
0.33406
0.337916
0.340809
0.342787
0.343917
0.344271
0.343926
0.342901
0.341253
0.339028
0.336253
0.333018
0.329363
0.325345
0.321029
0.316469
10.2718
0.29101
0.313788
0.320742
0.326106
0.330502
0.33392
0.336471
0.338235
0.339244
0.339522
0.339096
0.337988
0.336208
0.333843
0.330971
0.327621
0.323889
0.319831
0.3155
10.4448
0.280966
0.303477
0.311775
0.317554
0.322432
0.326445
0.32973
0.33232
0.33414
0.335142
0.335311
0.334678
0.333335
0.331332
0.328758
0.325708
0.322237
0.318426
0.314329
10.5513
0.273812
0.292155
0.301878
0.307831
0.313299
0.31831
0.322772
0.326439
0.329128
0.330781
0.331445
0.331227
0.330224
0.328543
0.326281
0.323517
0.320329
0.31679
0.312937
10.5937
0.271671
0.279781
0.29002
0.29632
0.303437
0.310327
0.316293
0.32093
0.32417
0.326194
0.327178
0.327276
0.326634
0.325334
0.323448
0.321042
0.318183
0.31492
0.311311
10.5769
0.275246
0.26509
0.274093
0.284152
0.294953
0.303816
0.310408
0.315076
0.318334
0.320556
0.321921
0.322532
0.322451
0.321695
0.320303
0.31834
0.315867
0.312914
0.309548
10.5073
0.275656
0.242327
0.255956
0.27644
0.289072
0.296709
0.302068
0.306424
0.310136
0.31321
0.315582
0.317153
0.317904
0.317866
0.317076
0.315586
0.313489
0.310842
0.307709
10.3924
0.275466
0.236408
0.247148
0.259064
0.265142
0.27282
0.281426
0.289708
0.296988
0.302966
0.307576
0.310855
0.31291
0.313858
0.313801
0.312847
0.311141
0.308765
0.305824
10.2403
0.373406
0.349171
0.340308
0.333819
0.32802
0.323209
0.320128
0.318531
0.317891
0.31772
0.317667
0.317471
0.316971
0.316052
0.314667
0.312792
0.310432
0.307622
0.30441
10.0591
0.0412922
0.108981
0.133157
0.161655
0.193238
0.219958
0.241083
0.257695
0.270813
0.281137
0.289155
0.295215
0.299584
0.302486
0.304121
0.304654
0.304236
0.302992
0.301034
10.001
0.168086
0.201574
0.220664
0.230613
0.241318
0.252592
0.263219
0.272644
0.280727
0.287459
0.292888
0.297094
0.300127
0.302099
0.303086
0.30318
0.30247
0.301046
0.299002
10.1787
0.200785
0.196894
0.213673
0.226268
0.237656
0.24859
0.258742
0.267879
0.275871
0.282671
0.288249
0.292603
0.295878
0.298121
0.299389
0.299777
0.29938
0.298266
0.296531
10.3535
0.208757
0.197283
0.210378
0.222541
0.233815
0.244436
0.254338
0.263322
0.271213
0.278039
0.283692
0.288188
0.291655
0.294171
0.295656
0.296327
0.296261
0.295423
0.293985
10.5254
0.203861
0.196182
0.207556
0.219004
0.230048
0.240356
0.25006
0.258913
0.266714
0.273439
0.279173
0.283828
0.287461
0.290197
0.291986
0.292912
0.293094
0.292533
0.291324
10.6947
0.196769
0.193304
0.204295
0.215396
0.226139
0.236386
0.245863
0.254433
0.262194
0.26902
0.274766
0.279611
0.283388
0.286197
0.288257
0.289441
0.289878
0.289572
0.2887
10.8614
0.190497
0.189736
0.200829
0.211667
0.222291
0.232256
0.24156
0.250219
0.25787
0.264606
0.270482
0.275311
0.279229
0.282388
0.284584
0.285941
0.286608
0.286519
0.285933
11.0255
0.185389
0.185945
0.197096
0.208012
0.218397
0.228203
0.237391
0.245898
0.253532
0.260329
0.266202
0.271118
0.275193
0.278475
0.280871
0.282376
0.283312
0.283546
0.28319
11.1872
0.180943
0.1824
0.193468
0.204179
0.214477
0.224224
0.233279
0.241683
0.249297
0.256061
0.261953
0.266992
0.271193
0.274564
0.277119
0.278957
0.280028
0.280446
0.280332
11.3465
0.176787
0.179004
0.189938
0.20045
0.210615
0.22027
0.229309
0.237535
0.245062
0.251871
0.257819
0.262894
0.267145
0.270689
0.273413
0.275435
0.276724
0.27733
0.277459
11.5036
0.17304
0.175715
0.186507
0.196863
0.20688
0.216382
0.225216
0.233477
0.240974
0.247705
0.253709
0.258845
0.263189
0.266808
0.26976
0.271877
0.273373
0.274308
0.274514
11.6585
0.169388
0.172543
0.183131
0.193436
0.203226
0.212567
0.221415
0.229535
0.236886
0.243626
0.249577
0.254771
0.259303
0.263024
0.266015
0.268349
0.270022
0.271106
0.271597
11.8114
0.165874
0.169623
0.179983
0.190053
0.199692
0.208912
0.217556
0.225521
0.232912
0.239578
0.245581
0.250887
0.25537
0.259207
0.262334
0.264836
0.26672
0.267914
0.268577
11.9624
0.162387
0.166747
0.176932
0.18681
0.196276
0.205301
0.213778
0.221662
0.228972
0.235707
0.241623
0.246846
0.251493
0.25544
0.258708
0.261316
0.263357
0.264765
0.265627
12.1115
0.159102
0.164047
0.174004
0.18363
0.192943
0.201734
0.210104
0.217995
0.225181
0.231739
0.237731
0.243056
0.247682
0.251721
0.255047
0.257765
0.259972
0.261609
0.262614
12.2587
0.155772
0.161525
0.171237
0.180586
0.189644
0.198342
0.206608
0.214294
0.2214
0.22792
0.233916
0.239289
0.243931
0.247958
0.251406
0.254304
0.256601
0.258318
0.259632
12.4043
0.152702
0.158967
0.168443
0.177669
0.186552
0.195084
0.203108
0.210698
0.217772
0.224165
0.230091
0.23553
0.24022
0.244281
0.247828
0.250816
0.253273
0.255148
0.256541
12.5481
0.149684
0.156638
0.165828
0.174794
0.183441
0.191829
0.199796
0.207176
0.214115
0.220601
0.226461
0.231751
0.236518
0.240731
0.244272
0.247331
0.249936
0.251962
0.25351
12.6904
0.14678
0.154353
0.163288
0.172028
0.180624
0.188749
0.196464
0.203758
0.21062
0.216959
0.222833
0.228143
0.232861
0.237107
0.240766
0.243949
0.246609
0.248775
0.25047
12.8312
1.05212
1.11417
1.17014
1.22084
1.26625
1.30636
1.34129
1.37109
1.39593
1.41587
1.43098
1.44169
1.44811
1.45024
1.44849
1.44304
1.43399
1.42164
1.40617
11.334
0.0596527
0.0593321
0.0602848
0.0620326
0.0638453
0.0654168
0.0678207
0.0784553
0.105828
0.218067
0.0637243
0.0730024
0.0841404
0.0973982
0.11283
0.129988
0.146359
0.161461
0.165928
0.218376
0.0631263
0.0721742
0.0827628
0.094553
0.106985
0.119098
0.13121
0.153031
0.167718
0.200039
0.0623915
0.0710867
0.0809505
0.0915865
0.10256
0.114317
0.129871
0.152241
0.160488
0.179314
0.0616223
0.0697804
0.0790406
0.0890948
0.100216
0.113572
0.130558
0.14728
0.154301
0.170298
0.0609605
0.0687198
0.077621
0.0876788
0.0994057
0.113341
0.128695
0.141146
0.150703
0.165923
0.0604598
0.0678878
0.0766733
0.0869278
0.0988321
0.112222
0.125484
0.136519
0.148267
0.162397
0.0600818
0.0674067
0.0761296
0.0863218
0.0979603
0.110374
0.12233
0.133255
0.146179
0.158934
0.0597502
0.067
0.0756338
0.0856731
0.0968088
0.108391
0.119698
0.130822
0.14411
0.15541
0.0594804
0.0666791
0.0751473
0.084901
0.0955586
0.106568
0.117473
0.128817
0.142033
0.152169
0.0591647
0.0663732
0.074744
0.0841044
0.0942619
0.104863
0.115679
0.127008
0.139823
0.149273
0.0589341
0.0660361
0.0742302
0.0833658
0.0930852
0.103323
0.114015
0.125289
0.137806
0.1467
0.0587341
0.0656977
0.0737138
0.082533
0.0919542
0.101928
0.112542
0.123738
0.135712
0.144443
0.0584442
0.065334
0.0732088
0.0817754
0.090969
0.100737
0.11116
0.122156
0.133866
0.142535
0.0582848
0.0650349
0.0726433
0.0810149
0.0900294
0.0996663
0.109965
0.120744
0.13188
0.140776
0.0580541
0.0647297
0.0722393
0.0803084
0.0891469
0.0986739
0.108758
0.119229
0.130138
0.13929
0.0578185
0.0644096
0.0717423
0.0797539
0.0883996
0.097693
0.10756
0.117795
0.128454
0.137975
0.0576393
0.0641229
0.0713056
0.0791308
0.0876692
0.0968088
0.106402
0.116489
0.126914
0.136725
0.0575072
0.0639039
0.0709269
0.0785982
0.0869033
0.0958177
0.105339
0.115216
0.125334
0.135681
0.141843
0.28838
0.427098
0.555032
0.669802
0.769615
0.853747
0.922061
0.97476
1.01202
0.0350086
0.0419799
0.0443735
0.0438771
0.0423805
0.0403075
0.0374392
0.0332276
0.0263786
12.189
0.0270952
0.0442201
0.0441245
0.0434153
0.0423003
0.040617
0.0382258
0.0346343
0.0287273
11.0104
0.0182247
0.0479136
0.0451613
0.0437322
0.0425554
0.0411929
0.0394455
0.0365309
0.0316021
9.77302
0.0109374
0.0419794
0.0427371
0.0428787
0.0425577
0.0420474
0.0408834
0.0386677
0.0346571
8.4851
0.00280576
0.0411306
0.0422012
0.0429801
0.0433784
0.0433394
0.0427126
0.0412822
0.0382728
7.1544
0.0140469
0.0424844
0.0434206
0.0443608
0.0449745
0.0453665
0.0452691
0.0445805
0.0424131
5.78908
0.0238551
0.0448651
0.0457678
0.04675
0.0475983
0.0482572
0.0486412
0.0485109
0.0472314
4.39768
0.033387
0.0481926
0.0492047
0.0502806
0.0512798
0.0520508
0.0529043
0.0532609
0.0528464
2.98803
0.0434243
0.0525591
0.0536405
0.0547676
0.0557828
0.0568641
0.05787
0.0585787
0.0589789
1.56851
0.0546876
0.0582826
0.0592934
0.0603043
0.061421
0.0626009
0.0636899
0.0647783
0.0656892
0.147818
1.59497
1.64478
1.6909
1.74027
1.79372
1.8521
1.91689
1.99022
2.07547
17.0168
0.0615407
0.0532993
0.0509696
0.0484014
0.0452876
0.0414181
0.0362618
0.0289225
0.0179099
18.9762
0.0620708
0.0534692
0.0512543
0.0486665
0.0454924
0.0415195
0.036325
0.0289879
0.0180655
18.6374
0.0643281
0.05394
0.0516513
0.0489508
0.0456848
0.0416782
0.0364826
0.0292262
0.0184876
18.1824
0.0691849
0.0547247
0.0520548
0.0490707
0.045665
0.0416499
0.0365294
0.029451
0.0190016
17.6156
0.0794247
0.0555558
0.0520281
0.0486539
0.045213
0.0413258
0.0364273
0.0296724
0.0196351
16.942
0.0980333
0.0545133
0.0502216
0.0470076
0.0439893
0.040586
0.0361819
0.0299225
0.0204259
16.1674
0.117539
0.0456599
0.044646
0.0437482
0.0421765
0.0397007
0.0359522
0.0302766
0.0214627
15.2979
0.0990777
0.0298603
0.0390806
0.0416307
0.041234
0.039329
0.0360198
0.0308871
0.0228207
14.3404
0.114949
0.0638304
0.0513539
0.0458893
0.0426726
0.0399985
0.03664
0.0319334
0.0245298
13.3017
24.4596
2.31459
2.25998
2.22767
2.1948
2.16132
2.12717
2.09232
2.05674
2.0204
1.98324
1.94523
1.90632
1.86643
1.8255
1.78348
1.7403
1.69592
1.65047
1.59357
21.9463
0.0631534
0.083622
0.0825896
0.0814937
0.0803486
0.0791623
0.0779099
0.0765948
0.0752048
0.0736895
0.0720486
0.0702763
0.0683475
0.0663058
0.0641927
0.0620333
0.0598611
0.0579957
0.0649381
21.714
0.0663453
0.0840494
0.0829698
0.0818304
0.0806512
0.0794387
0.0781776
0.0768724
0.0755229
0.0740988
0.0725636
0.0708681
0.0689682
0.0668693
0.0646339
0.0623438
0.0600113
0.058447
0.0622113
21.3647
0.0707111
0.0844749
0.0833312
0.0821202
0.0808681
0.0795519
0.0782072
0.0768377
0.0754683
0.0740915
0.0726592
0.0711268
0.0693919
0.0673402
0.0649731
0.0624055
0.0596759
0.0587628
0.0571685
20.9121
0.0760825
0.0849063
0.0837134
0.0824223
0.0810686
0.0796379
0.0781311
0.0765969
0.0750705
0.0735537
0.0721159
0.0707502
0.0693414
0.0676707
0.0654853
0.0626831
0.0592172
0.0588859
0.0480368
20.373
0.0821861
0.0853399
0.084103
0.0827434
0.0813114
0.079781
0.0781633
0.0764306
0.0746032
0.0727343
0.0709258
0.0693176
0.0680133
0.0669641
0.0657816
0.0637386
0.0596811
0.0588326
0.032914
19.7655
0.0888829
0.0857625
0.084363
0.0829232
0.0814772
0.0799717
0.07836
0.0765905
0.0746093
0.0723978
0.069983
0.0675195
0.0653324
0.0639004
0.0636454
0.0643212
0.0631521
0.0598741
0.0111892
19.1084
0.0965677
0.0861562
0.0842567
0.0826941
0.0812924
0.0799181
0.0784652
0.076894
0.0751531
0.0731336
0.0707115
0.0677724
0.0642812
0.0605931
0.0579976
0.0593707
0.067749
0.0678997
0.00775191
18.4212
0.108582
0.0858636
0.0833617
0.0820534
0.0809392
0.0798416
0.0787695
0.0777727
0.0769036
0.0762026
0.0756758
0.0752476
0.0746252
0.0731389
0.0695862
0.0633579
0.0622388
0.0582044
0.0267122
17.7016
0.113593
0.0784334
0.0796212
0.0781147
0.0754336
0.0720223
0.0679376
0.0631363
0.0574772
0.0507571
0.0427208
0.0329945
0.0211204
0.00660546
0.0107027
0.0300302
0.0505378
0.0736997
0.142757
17.2613
0.107469
0.083456
0.0839359
0.0838791
0.0836869
0.0835614
0.0836154
0.0839631
0.084751
0.0861959
0.0886032
0.0924297
0.098442
0.107713
0.121449
0.13903
0.152505
0.160175
0.224078
17.2582
0.0962633
0.0874669
0.0841194
0.0821422
0.0804535
0.0788065
0.0771247
0.0754089
0.0736872
0.0719782
0.070336
0.068785
0.0673852
0.0661323
0.0643865
0.0610653
0.0562774
0.0602329
0.0892564
17.2528
0.0883858
0.0863617
0.0841376
0.0822681
0.080476
0.0787154
0.0770257
0.0752235
0.0733942
0.0716458
0.069925
0.0681614
0.0663662
0.0645665
0.0625318
0.0600462
0.0580915
0.0597616
0.0498868
17.2525
0.0867083
0.0855314
0.0837612
0.0820302
0.080298
0.0785531
0.0767842
0.0748579
0.0730006
0.0711814
0.0692624
0.0673179
0.0653217
0.0631854
0.0609495
0.0586375
0.0562798
0.0543396
0.0365554
17.2532
0.0862569
0.0849925
0.0833429
0.0817094
0.0800405
0.0781635
0.0762902
0.0743989
0.0724698
0.0705683
0.0684685
0.0663607
0.0642843
0.0619448
0.0594562
0.0569347
0.0541087
0.0507139
0.0362632
17.2538
0.0859736
0.0845259
0.0829777
0.08133
0.0795056
0.077666
0.0757856
0.0737927
0.0718048
0.0697447
0.0675866
0.0653811
0.0631439
0.0607387
0.0580853
0.0553657
0.052455
0.0491193
0.0384471
17.2542
0.0856028
0.0841577
0.0824771
0.0807279
0.0789694
0.0770358
0.0751391
0.0731604
0.071039
0.0688505
0.0666718
0.0643743
0.0619649
0.0594754
0.0568823
0.0541888
0.0512599
0.0481356
0.0398195
17.2543
0.0852771
0.0836459
0.0819668
0.0801328
0.0782893
0.0764343
0.0743302
0.0722763
0.070179
0.0679468
0.0656593
0.0632798
0.0608356
0.058307
0.055748
0.053015
0.0502535
0.0475696
0.040263
17.2543
0.0848223
0.0831174
0.0813059
0.0794713
0.077544
0.0756159
0.0735483
0.0713601
0.0692286
0.0669596
0.0646149
0.0621419
0.0597101
0.0571947
0.0545953
0.0520635
0.0493866
0.0469134
0.0401077
17.254
0.0842657
0.0824753
0.0806033
0.0787547
0.0768053
0.0747101
0.0725853
0.0703971
0.0682033
0.0659242
0.0635084
0.0610229
0.0585975
0.056049
0.0535256
0.0509765
0.0485431
0.0462348
0.039615
17.2538
0.0836137
0.0817782
0.0798139
0.0779203
0.0759145
0.0737696
0.0716219
0.0694613
0.0671383
0.0647562
0.0623702
0.0598414
0.0573942
0.0549266
0.0524111
0.0499767
0.0476677
0.0455087
0.0390601
17.2537
0.0829334
0.0809994
0.0790472
0.0770612
0.074947
0.0727745
0.0706161
0.0683295
0.0659375
0.0636414
0.0612071
0.0586646
0.056243
0.0537591
0.0513144
0.0489858
0.0466691
0.0445951
0.0383923
17.2537
0.0821261
0.0801835
0.0781054
0.0761183
0.0739851
0.0717113
0.0694622
0.0671848
0.0648431
0.062418
0.0599192
0.0574635
0.055046
0.0525503
0.0501301
0.0479002
0.0456975
0.0436826
0.0378899
17.2539
0.0812423
0.0792972
0.0771762
0.075036
0.0728839
0.070578
0.0682975
0.0659987
0.0635787
0.0611846
0.058755
0.0561766
0.0537534
0.0513528
0.0490323
0.0467958
0.0445903
0.0426822
0.0372824
17.2546
0.0804076
0.0783054
0.0761406
0.07392
0.0717384
0.0694599
0.0670408
0.0647566
0.0623552
0.0598371
0.0573761
0.0549366
0.0525069
0.0501016
0.0477553
0.0456039
0.0435613
0.0417029
0.0367877
17.2558
0.0793625
0.0772547
0.0750382
0.0728059
0.0705769
0.0682232
0.0657836
0.0633865
0.0610179
0.0585274
0.0560111
0.0535904
0.0511681
0.0488278
0.0465898
0.0444145
0.0424249
0.0407492
0.0362756
17.2576
0.0783126
0.0761158
0.0739164
0.0716559
0.0692778
0.0668959
0.064473
0.0620639
0.0596615
0.0571152
0.0546786
0.0522371
0.0497696
0.0475031
0.0452942
0.0432416
0.0413759
0.0395752
0.0356648
17.26
0.0772383
0.0749434
0.0726707
0.0703608
0.0679641
0.0655169
0.0630659
0.0606677
0.0582393
0.0557096
0.053257
0.0508399
0.0484355
0.0461873
0.0440195
0.0420219
0.0401354
0.0384591
0.0351727
17.2632
0.0759573
0.07371
0.0714249
0.0689675
0.0666007
0.0641285
0.0616782
0.0592326
0.0567081
0.0542687
0.0517817
0.049361
0.0470567
0.0448544
0.0426726
0.0406701
0.0389343
0.0373991
0.0346094
14.8793
2.42118
2.37489
2.32639
2.27539
2.22172
2.16557
2.10658
2.04471
1.98001
1.91235
1.84158
1.76769
1.69081
1.61075
1.52747
1.44122
1.35203
1.25986
1.16379
0.0252727
0.130772
0.133016
0.121835
0.105157
0.0904675
0.0790611
0.0707818
0.0649175
0.0612371
0.00426413
0.0451701
0.0325546
0.0314931
0.0327531
0.0365241
0.0406038
0.0449487
0.0499605
0.0560696
0.0123748
0.039408
0.0381195
0.0439156
0.0412672
0.0402436
0.0416664
0.0448054
0.0494198
0.0555852
0.0304853
0.0426969
0.0353937
0.0424191
0.0436569
0.0426858
0.0429465
0.0452998
0.0493951
0.0551024
0.0363602
0.0454642
0.0370571
0.0389867
0.0420233
0.0430937
0.0439188
0.045903
0.0496241
0.0548983
0.0375498
0.0457629
0.0400292
0.0381206
0.0400653
0.0421623
0.0439023
0.046208
0.0497404
0.0546053
0.0381877
0.0448578
0.0418023
0.0386977
0.0391577
0.0410653
0.0432798
0.0460091
0.0496248
0.054402
0.0389588
0.043726
0.0423147
0.0394964
0.0388606
0.0402889
0.0426761
0.0455858
0.0493105
0.0541148
0.039634
0.0426359
0.0420126
0.0399019
0.0390291
0.0398925
0.0420703
0.0451225
0.0490176
0.0538116
0.0403096
0.0417207
0.0413809
0.0398281
0.0390707
0.0396951
0.0417491
0.0446904
0.0485912
0.0535321
0.0405707
0.0408939
0.0406602
0.0395913
0.0390568
0.0395922
0.0414158
0.0444284
0.0483151
0.0531834
0.0405464
0.0401872
0.0398718
0.0391882
0.0388957
0.0394965
0.0412186
0.044109
0.0480381
0.0529679
0.0402418
0.0394067
0.0391247
0.0386066
0.0385759
0.0393724
0.0411098
0.0438862
0.0478345
0.0528015
0.0398084
0.0387027
0.0382953
0.038073
0.0383092
0.0391603
0.0409557
0.0437457
0.047682
0.0526055
0.0389878
0.0378718
0.0375799
0.0374761
0.0379156
0.0389793
0.0408566
0.0436452
0.0474889
0.052435
0.038005
0.0371089
0.0368977
0.0369278
0.0374389
0.0387221
0.0407358
0.0435515
0.0473891
0.0522858
0.0369782
0.036351
0.0361934
0.0363777
0.0370998
0.0384436
0.0405011
0.0435063
0.0474046
0.0521609
0.0358133
0.0355645
0.0354048
0.0357852
0.0367232
0.038271
0.0403824
0.0433544
0.0473356
0.0521335
0.0344095
0.0346723
0.0346945
0.0352034
0.0363006
0.0379711
0.0401968
0.0432288
0.0471369
0.051929
1.08889
1.01589
0.92894
0.828832
0.715866
0.590832
0.455165
0.311093
0.161374
0.00914681
)
;

boundaryField
{
    down
    {
        type            symmetryPlane;
    }
    right
    {
        type            calculated;
        value           nonuniform List<scalar> 
30
(
10.1023
10.2718
10.4448
10.5513
10.5937
10.5769
10.5073
10.3924
10.2403
10.0591
10.001
10.1787
10.3535
10.5254
10.6947
10.8614
11.0255
11.1872
11.3465
11.5036
11.6585
11.8114
11.9624
12.1115
12.2587
12.4043
12.5481
12.6904
12.8312
11.334
)
;
    }
    up
    {
        type            symmetryPlane;
    }
    left
    {
        type            calculated;
        value           nonuniform List<scalar> 
30
(
24.4596
21.9463
21.714
21.3647
20.9121
20.373
19.7655
19.1084
18.4212
17.7016
17.2613
17.2582
17.2528
17.2525
17.2532
17.2538
17.2542
17.2543
17.2543
17.254
17.2538
17.2537
17.2537
17.2539
17.2546
17.2558
17.2576
17.26
17.2632
14.8793
)
;
    }
    cylinder
    {
        type            symmetry;
    }
    defaultFaces
    {
        type            empty;
    }
}


// ************************************************************************* //
