/*--------------------------------*- C++ -*----------------------------------*\
| =========                 |                                                 |
| \\      /  F ield         | OpenFOAM: The Open Source CFD Toolbox           |
|  \\    /   O peration     | Version:  2206                                  |
|   \\  /    A nd           | Website:  www.openfoam.com                      |
|    \\/     M anipulation  |                                                 |
\*---------------------------------------------------------------------------*/
FoamFile
{
    version     2.0;
    format      ascii;
    arch        "LSB;label=32;scalar=64";
    class       volScalarField;
    location    "0";
    object      error_Phi;
}
// * * * * * * * * * * * * * * * * * * * * * * * * * * * * * * * * * * * * * //

dimensions      [0 2 -1 0 0 0 0];

internalField   nonuniform List<scalar> 
2000
(
0.0529122
0.051545
0.0458595
0.036901
0.0254048
0.0119259
0.0031408
0.0194506
0.0367889
0.0549411
0.0688328
0.063818
0.0549323
0.0431417
0.0291214
0.0133566
0.00375803
0.0219478
0.0409782
0.060675
0.0885209
0.0797885
0.0676599
0.0530011
0.0364175
0.018344
0.000864687
0.0209643
0.0417508
0.0630501
0.111824
0.0993236
0.0839275
0.0663718
0.0471916
0.0267716
0.00542605
0.0166412
0.0392465
0.0622566
0.138586
0.1223
0.103604
0.0831351
0.0613469
0.0385639
0.0150498
0.00901231
0.0334895
0.0582692
0.168634
0.148552
0.126562
0.103181
0.0787908
0.0536463
0.0279701
0.00189464
0.0244682
0.0510366
0.201787
0.17795
0.152694
0.126424
0.099452
0.071972
0.0441358
0.016055
0.0121793
0.0405162
0.237885
0.21033
0.18186
0.152772
0.123256
0.0934868
0.0635345
0.0335003
0.00342469
0.0266523
0.276737
0.245545
0.213954
0.182108
0.150151
0.118153
0.0861753
0.0542392
0.0223845
0.00937912
0.318142
0.283446
0.248837
0.21437
0.180066
0.145959
0.112039
0.0783162
0.0447813
0.011424
0.12288
0.152992
0.175948
0.193278
0.206053
0.215116
0.221069
0.224402
0.225481
0.224604
0.096525
0.123959
0.144349
0.159185
0.169566
0.176303
0.180008
0.181158
0.180123
0.177197
0.0744223
0.099073
0.116811
0.129132
0.137117
0.141563
0.143061
0.142101
0.13904
0.134168
0.0566421
0.0783894
0.0934294
0.103208
0.108794
0.110963
0.110304
0.107297
0.102279
0.0955519
0.043231
0.0619672
0.0742365
0.0814341
0.0846162
0.0845292
0.0817603
0.076737
0.0698376
0.0613247
0.0341827
0.0498134
0.0592396
0.0638361
0.0646082
0.0622716
0.0574024
0.050427
0.0416724
0.0314158
0.0294799
0.0418934
0.048425
0.0503892
0.0487311
0.0441656
0.0372281
0.0283144
0.0177403
0.00575206
0.0290849
0.0381932
0.04176
0.0410398
0.0369574
0.0301676
0.0211754
0.010356
0.0020054
0.0156832
0.0329218
0.0386218
0.0391658
0.0357487
0.0292154
0.0202005
0.00917898
0.00349438
0.0175546
0.0328266
0.0408972
0.0431123
0.04057
0.0343954
0.0253934
0.0141591
0.00112713
0.0133576
0.0290205
0.0456466
0.222706
0.219947
0.215787
0.210369
0.203811
0.196214
0.187669
0.178249
0.16802
0.157037
0.145351
0.133005
0.12004
0.106491
0.0923945
0.0777813
0.0626831
0.047128
0.0311473
0.0147676
0.174504
0.172213
0.168546
0.163633
0.157589
0.150512
0.142487
0.133584
0.123867
0.11339
0.102199
0.0903395
0.0778495
0.0647662
0.0511227
0.0369539
0.0222898
0.00716016
0.00840438
0.024376
0.130578
0.128466
0.125032
0.120392
0.114652
0.107898
0.100208
0.0916476
0.0822717
0.0721294
0.0612655
0.0497206
0.0375321
0.0247377
0.0113712
0.00253468
0.0169492
0.0318396
0.0471788
0.0629361
0.0909568
0.0887425
0.0852937
0.0807048
0.0750649
0.0684481
0.0609179
0.0525266
0.0433212
0.0333428
0.0226314
0.0112259
0.000837401
0.0135229
0.026797
0.0406259
0.0549772
0.069821
0.0851272
0.100867
0.0556052
0.0530184
0.0493194
0.0445781
0.0388556
0.0322047
0.0246685
0.0162803
0.00707556
0.00291187
0.0136466
0.0250917
0.0372121
0.0499722
0.0633375
0.0772752
0.0917535
0.106742
0.122211
0.138132
0.0244289
0.0212069
0.0170464
0.0119756
0.00601512
0.000822416
0.00852422
0.0170746
0.0264508
0.0366225
0.0475576
0.0592215
0.071578
0.0845916
0.0982306
0.11246
0.127251
0.142573
0.158399
0.1747
0.00269677
0.00681256
0.0116153
0.017158
0.0234961
0.0306716
0.038702
0.0475867
0.0573069
0.0678369
0.0791439
0.0911944
0.103956
0.117393
0.131475
0.146173
0.161457
0.177297
0.19367
0.210548
0.0258323
0.0311268
0.0367231
0.0428802
0.0497632
0.0574601
0.0660036
0.0753983
0.0856287
0.0966719
0.1085
0.121084
0.134396
0.148409
0.163092
0.178421
0.194367
0.210906
0.228012
0.245662
0.0448085
0.0516139
0.0582589
0.0653027
0.0729957
0.0814421
0.0906859
0.100743
0.111612
0.123285
0.135748
0.148983
0.16297
0.177686
0.193111
0.209219
0.225989
0.243397
0.261419
0.280033
0.0591196
0.0678735
0.076321
0.0847845
0.0936071
0.103
0.113068
0.123876
0.135459
0.147836
0.161014
0.174987
0.189747
0.205281
0.221571
0.238599
0.256343
0.274783
0.293897
0.313662
0.0757544
0.0862133
0.0962695
0.106138
0.116117
0.126449
0.137298
0.148775
0.160951
0.173871
0.187562
0.202037
0.217299
0.233345
0.250163
0.267742
0.286067
0.305117
0.324877
0.345325
0.0992197
0.110473
0.121268
0.131881
0.142551
0.153489
0.164853
0.176758
0.189288
0.2025
0.216432
0.231107
0.246538
0.26273
0.279679
0.297377
0.315816
0.334981
0.354859
0.375432
0.123754
0.135477
0.146777
0.157891
0.169054
0.180438
0.192198
0.204444
0.217264
0.230721
0.244859
0.259709
0.275291
0.291615
0.308684
0.326497
0.345048
0.364327
0.384323
0.405025
0.149401
0.16129
0.172829
0.184249
0.195723
0.207407
0.219444
0.23194
0.244978
0.258623
0.272924
0.287916
0.303622
0.320059
0.337234
0.355148
0.3738
0.393186
0.413295
0.434121
0.176036
0.187864
0.199458
0.210987
0.222616
0.234475
0.246681
0.259335
0.272518
0.286291
0.300706
0.315799
0.331598
0.34812
0.365377
0.383374
0.402113
0.421591
0.441804
0.462744
0.203543
0.215147
0.226639
0.23814
0.249798
0.261706
0.273979
0.286705
0.299959
0.313798
0.328275
0.343426
0.359279
0.375854
0.393166
0.411223
0.430027
0.449581
0.469879
0.490919
0.231811
0.243094
0.254358
0.265725
0.277284
0.289148
0.301397
0.314114
0.327366
0.341211
0.355696
0.370857
0.386724
0.403317
0.420653
0.43874
0.457586
0.47719
0.497554
0.518674
0.260768
0.271645
0.282604
0.29373
0.305122
0.316841
0.328984
0.341617
0.354801
0.36859
0.383029
0.398153
0.41399
0.430563
0.447887
0.465974
0.484831
0.50446
0.524864
0.54604
0.290373
0.300787
0.311365
0.322182
0.333309
0.344819
0.356783
0.369263
0.382317
0.395992
0.410332
0.425369
0.441133
0.457644
0.474919
0.492971
0.511806
0.53143
0.551845
0.573049
0.320584
0.330501
0.340641
0.351081
0.361885
0.373111
0.384831
0.397097
0.40996
0.423466
0.437655
0.452559
0.468203
0.484611
0.501798
0.519777
0.538557
0.558142
0.578535
0.599738
0.35139
0.360754
0.37042
0.380426
0.390858
0.401746
0.413165
0.425159
0.437779
0.451063
0.465051
0.479772
0.495253
0.511514
0.528572
0.54644
0.565127
0.584638
0.604975
0.626142
0.382759
0.391555
0.400701
0.410246
0.420247
0.430754
0.441819
0.453493
0.465816
0.47883
0.492567
0.507059
0.522331
0.538402
0.555291
0.573007
0.591561
0.610959
0.631206
0.652301
0.414708
0.422912
0.431512
0.440549
0.450082
0.460162
0.470831
0.482134
0.494115
0.506809
0.520251
0.534469
0.549487
0.565325
0.582
0.599523
0.617905
0.637152
0.657267
0.678254
0.447223
0.454822
0.462851
0.471353
0.48039
0.490002
0.500231
0.511122
0.522715
0.535047
0.548148
0.562047
0.576767
0.592329
0.608747
0.626036
0.644203
0.663258
0.683203
0.704041
0.48032
0.4873
0.494744
0.502686
0.511199
0.520303
0.530056
0.540496
0.551662
0.563587
0.576304
0.58984
0.604219
0.61946
0.63558
0.65259
0.670503
0.689323
0.709056
0.729704
0.514001
0.520362
0.527196
0.534572
0.542525
0.551098
0.560341
0.570294
0.580992
0.592472
0.604763
0.617895
0.631889
0.646767
0.662544
0.679235
0.696848
0.715391
0.73487
0.755286
0.548299
0.554018
0.560251
0.567028
0.574404
0.582419
0.591123
0.600553
0.610748
0.621743
0.63357
0.646255
0.659823
0.674295
0.689687
0.706014
0.723284
0.741508
0.760688
0.78083
0.583223
0.588311
0.593921
0.600084
0.60687
0.614301
0.622436
0.631314
0.640971
0.651445
0.662768
0.674966
0.688067
0.702089
0.717054
0.732973
0.749857
0.767716
0.786555
0.806378
0.61879
0.623249
0.628235
0.633784
0.639944
0.646779
0.654321
0.662615
0.671703
0.68162
0.6924
0.704073
0.716665
0.730197
0.74469
0.760157
0.776611
0.794062
0.812515
0.831974
0.655036
0.658869
0.663223
0.668144
0.673677
0.679889
0.686812
0.694497
0.702982
0.712308
0.72251
0.733618
0.745661
0.75866
0.77264
0.787612
0.803592
0.820589
0.838611
0.857661
0.0213413
0.0401805
0.0556011
0.0677115
0.0766147
0.0823823
0.0850408
0.0846124
0.0811903
0.074778
0.0539356
0.0706326
0.0841593
0.0946545
0.102226
0.106935
0.108773
0.107692
0.103649
0.0971069
0.0864932
0.101293
0.113145
0.122208
0.128572
0.132299
0.133351
0.13171
0.127436
0.121109
0.119004
0.132103
0.142461
0.150235
0.15552
0.158351
0.158756
0.156751
0.152539
0.146545
0.151468
0.163043
0.172068
0.17868
0.182993
0.185071
0.184959
0.182771
0.178737
0.173098
0.183895
0.194083
0.201909
0.207506
0.210969
0.212416
0.211932
0.209673
0.20583
0.200563
0.216294
0.225223
0.231974
0.236666
0.239423
0.240356
0.239607
0.237345
0.233717
0.228825
0.248663
0.256463
0.262255
0.266162
0.268319
0.268847
0.267925
0.265692
0.262299
0.257789
0.28103
0.287802
0.292741
0.295967
0.297622
0.297858
0.296818
0.294669
0.291516
0.28741
0.313403
0.319247
0.323432
0.326082
0.327336
0.327335
0.326254
0.32422
0.321328
0.317654
0.345789
0.350787
0.354317
0.356478
0.357414
0.357263
0.356186
0.3543
0.351715
0.348487
0.378202
0.382448
0.385404
0.387155
0.387848
0.38761
0.38659
0.384903
0.382644
0.379893
0.41065
0.414226
0.416681
0.418101
0.418619
0.418358
0.417445
0.416
0.414113
0.411866
0.443155
0.446126
0.448154
0.449306
0.449718
0.44949
0.448739
0.447583
0.446119
0.444408
0.475723
0.478164
0.479818
0.480785
0.481145
0.48101
0.480476
0.479661
0.478647
0.477511
0.508355
0.510332
0.511688
0.512516
0.512886
0.512898
0.512651
0.512224
0.51172
0.511193
0.541074
0.542633
0.543758
0.544513
0.544961
0.545184
0.545258
0.545289
0.54533
0.545464
0.573891
0.575099
0.576041
0.57677
0.577354
0.577846
0.578317
0.57884
0.579489
0.580338
0.606796
0.607711
0.608537
0.609312
0.610081
0.610892
0.611819
0.612902
0.614223
0.61583
0.639808
0.640488
0.641249
0.642118
0.643134
0.644337
0.645772
0.647486
0.64953
0.651962
0.429404
0.466419
0.504458
0.543712
0.584444
0.626976
0.671731
0.71927
0.770336
0.82596
0.370162
0.40827
0.447302
0.487443
0.528929
0.572063
0.617244
0.664955
0.715912
0.771052
0.314616
0.353436
0.393086
0.433735
0.475601
0.518964
0.564172
0.611696
0.662143
0.716374
0.263016
0.302127
0.342001
0.38278
0.424667
0.467895
0.512776
0.559724
0.60928
0.662198
0.215342
0.25441
0.294162
0.334741
0.376296
0.419043
0.463247
0.509266
0.557565
0.608801
0.171616
0.210331
0.249666
0.289719
0.330632
0.372573
0.415783
0.460531
0.507237
0.55642
0.131839
0.169929
0.208552
0.247791
0.287769
0.328618
0.370522
0.413713
0.458493
0.505314
0.0959824
0.133193
0.170855
0.209035
0.247809
0.287301
0.327627
0.368973
0.411561
0.455706
0.0640045
0.100121
0.136594
0.173469
0.210826
0.248711
0.287232
0.326485
0.366626
0.40783
0.0358557
0.0706614
0.105749
0.141137
0.176855
0.212941
0.249445
0.286393
0.323853
0.361911
1.14792
1.15607
1.16595
1.17784
1.19212
1.20924
1.22983
1.25469
1.28494
1.32207
1.07208
1.0844
1.09839
1.11433
1.1326
1.15365
1.1781
1.20675
1.2407
1.28144
0.995734
1.01201
1.02988
1.04966
1.07168
1.09642
1.12446
1.15662
1.19396
1.23799
0.919478
0.939457
0.96097
0.984311
1.00982
1.03796
1.06931
1.10467
1.14508
1.19201
0.843913
0.867305
0.892164
0.918765
0.947459
0.978701
1.01304
1.05126
1.09439
1.14383
0.769583
0.796044
0.823921
0.853468
0.885028
0.919024
0.956017
0.996742
1.0422
1.09376
0.696963
0.726134
0.756666
0.788811
0.822894
0.859318
0.898607
0.941473
0.988859
1.04211
0.626401
0.657906
0.690769
0.725185
0.76144
0.799938
0.841153
0.885772
0.934697
0.989192
0.558036
0.591642
0.626529
0.662894
0.701004
0.741207
0.783978
0.829964
0.880012
0.935327
0.492051
0.527625
0.564288
0.602291
0.641892
0.683451
0.727406
0.774367
0.825133
0.880823
1.21491
1.20621
1.19791
1.19005
1.18263
1.17567
1.16918
1.16318
1.15769
1.15275
1.14837
1.14458
1.14144
1.13897
1.13725
1.13632
1.13626
1.13716
1.13915
1.14234
1.13841
1.12954
1.1211
1.11311
1.10557
1.0985
1.09191
1.08582
1.08027
1.07526
1.07083
1.06701
1.06384
1.06135
1.05959
1.05863
1.05854
1.05942
1.06134
1.06443
1.06246
1.05343
1.04484
1.0367
1.02903
1.02183
1.01513
1.00895
1.00331
0.998232
0.993737
0.98986
0.986619
0.98407
0.982239
0.981192
0.980981
0.981681
0.983403
0.986229
0.987107
0.977929
0.969199
0.96093
0.953147
0.94584
0.939052
0.932795
0.927078
0.921932
0.917386
0.913448
0.910155
0.907534
0.905621
0.904439
0.904063
0.904534
0.905935
0.908346
0.912366
0.903084
0.89427
0.885929
0.878073
0.870715
0.863878
0.857574
0.851831
0.846652
0.842084
0.838116
0.834794
0.832136
0.830145
0.828856
0.828291
0.828492
0.82951
0.831394
0.838268
0.828971
0.820143
0.811801
0.803958
0.796617
0.7898
0.783529
0.777815
0.772678
0.768126
0.764187
0.760888
0.758225
0.756221
0.754859
0.754152
0.754088
0.754678
0.755939
0.764851
0.75563
0.746894
0.738658
0.730937
0.723723
0.71704
0.71089
0.705303
0.700279
0.695846
0.692001
0.688771
0.68618
0.684201
0.682835
0.682043
0.681773
0.681952
0.682496
0.692126
0.683115
0.674606
0.666615
0.659146
0.652193
0.64578
0.639898
0.634567
0.629788
0.625567
0.621922
0.618857
0.616375
0.614479
0.613147
0.612317
0.611907
0.611709
0.611446
0.620141
0.611472
0.603344
0.595753
0.588704
0.582183
0.576202
0.570763
0.565856
0.56148
0.557642
0.554328
0.551551
0.549282
0.547511
0.546206
0.5453
0.544667
0.544057
0.54285
0.548903
0.54071
0.53314
0.526149
0.519714
0.513828
0.508476
0.503659
0.499376
0.495607
0.492336
0.489567
0.487253
0.485362
0.48384
0.482602
0.481509
0.48035
0.47875
0.476362
0.481224
0.473615
0.466588
0.460101
0.45414
0.44871
0.443795
0.439377
0.435464
0.432025
0.429035
0.426467
0.424271
0.422376
0.420705
0.419112
0.417415
0.415361
0.412633
0.40897
0.416695
0.409571
0.402896
0.396708
0.390995
0.385752
0.380982
0.376666
0.372796
0.369348
0.366288
0.363571
0.361136
0.358921
0.356822
0.354691
0.352368
0.349618
0.346175
0.341749
0.35287
0.346137
0.339811
0.333901
0.328432
0.32339
0.318779
0.314581
0.310767
0.307335
0.30422
0.301396
0.298795
0.296333
0.293908
0.291402
0.288633
0.285409
0.281503
0.276634
0.289725
0.283351
0.27734
0.271722
0.266492
0.261657
0.257211
0.253135
0.249412
0.246008
0.24288
0.240003
0.237277
0.234651
0.232021
0.22926
0.226217
0.22272
0.218571
0.213551
0.227247
0.221207
0.215518
0.210177
0.205201
0.200577
0.19631
0.19237
0.18874
0.185398
0.1823
0.179401
0.176633
0.173913
0.17117
0.168264
0.165088
0.161487
0.157286
0.152324
0.165442
0.159732
0.154349
0.14929
0.144553
0.140154
0.136068
0.132288
0.128784
0.125536
0.1225
0.119631
0.116861
0.114129
0.111342
0.108402
0.105212
0.101627
0.0975128
0.0927489
0.104316
0.0989312
0.0938481
0.0890656
0.0845813
0.0804114
0.0765205
0.0729118
0.0695565
0.0664238
0.063481
0.0606728
0.0579616
0.055267
0.0525259
0.0496423
0.0465169
0.0430475
0.0391183
0.0346305
0.043855
0.0387995
0.0340111
0.0295089
0.0252904
0.0213421
0.0176689
0.014244
0.0110489
0.00805329
0.00523446
0.00254758
6.46597e-05
0.00266221
0.0053078
0.00808708
0.0110688
0.0143449
0.0180106
0.0221644
0.0159153
0.0206574
0.0251472
0.0293658
0.0333254
0.0370395
0.0404929
0.0437221
0.0467355
0.0495533
0.0522176
0.0547732
0.0572468
0.0597082
0.0621995
0.064806
0.0675861
0.0706311
0.0739958
0.0777684
0.0750088
0.0794336
0.0836215
0.0875734
0.0912715
0.094729
0.0979606
0.100973
0.103784
0.106423
0.108913
0.111287
0.113593
0.115879
0.118188
0.120584
0.123125
0.125882
0.128918
0.132283
0.133429
0.137543
0.141436
0.145099
0.148533
0.151742
0.15474
0.157524
0.160131
0.162562
0.164857
0.167031
0.169141
0.171224
0.173312
0.175469
0.177744
0.180186
0.182868
0.185819
0.191171
0.19498
0.198575
0.201955
0.205123
0.208082
0.210836
0.21339
0.215764
0.217976
0.220057
0.222022
0.223916
0.225767
0.227617
0.22951
0.231491
0.233611
0.235914
0.238455
0.248236
0.251748
0.255052
0.258158
0.261057
0.263754
0.266252
0.268567
0.270706
0.272689
0.274537
0.276274
0.277934
0.279536
0.281131
0.282751
0.284433
0.286216
0.288142
0.290258
0.304647
0.307859
0.31088
0.313699
0.316328
0.318771
0.321012
0.323086
0.324981
0.326716
0.328332
0.329821
0.33123
0.332585
0.333906
0.335228
0.336604
0.338044
0.339599
0.341306
0.360409
0.363317
0.366051
0.368601
0.370968
0.373136
0.375129
0.376942
0.378582
0.380079
0.381443
0.382687
0.383836
0.384926
0.385968
0.387004
0.388058
0.38916
0.390349
0.391652
0.415521
0.418153
0.420607
0.422876
0.424969
0.426871
0.428604
0.430156
0.431552
0.432791
0.433894
0.434884
0.435774
0.436592
0.437348
0.438091
0.438828
0.439606
0.440435
0.441349
0.470015
0.472357
0.474531
0.476525
0.478353
0.479996
0.481459
0.482758
0.483889
0.484871
0.485725
0.486441
0.487066
0.487604
0.488086
0.488532
0.488965
0.489414
0.489897
0.490438
0.523883
0.525952
0.527851
0.529579
0.531128
0.532512
0.533714
0.53475
0.535616
0.536341
0.536925
0.53739
0.537741
0.538012
0.538203
0.538364
0.538489
0.538623
0.538766
0.538961
0.577163
0.578956
0.580577
0.582037
0.583326
0.584438
0.585377
0.586149
0.58676
0.587218
0.587534
0.587729
0.587816
0.587803
0.587726
0.587596
0.587436
0.587251
0.58709
0.586954
0.629846
0.631379
0.63274
0.633927
0.634944
0.635793
0.636468
0.636974
0.637319
0.63751
0.637568
0.637494
0.637311
0.637025
0.636673
0.636256
0.635815
0.635346
0.634875
0.634424
0.377604
0.31994
0.266227
0.216486
0.170693
0.128858
0.0910154
0.057142
0.0271947
0.00107226
0.311549
0.258345
0.209015
0.163187
0.120951
0.082443
0.0477255
0.0168072
0.010371
0.0339051
0.248104
0.198867
0.153434
0.111323
0.0725331
0.0372059
0.00544322
0.022745
0.0473842
0.0685853
0.186965
0.141435
0.0994888
0.0607978
0.0252747
0.00701546
0.0359923
0.0616147
0.0839246
0.102998
0.127727
0.0857499
0.0470704
0.011557
0.0209171
0.0503427
0.0766915
0.0999216
0.120062
0.137193
0.070107
0.0315607
0.00396807
0.0365045
0.0661253
0.0928673
0.116735
0.137715
0.155844
0.171199
0.0139126
0.0213119
0.0537933
0.083481
0.110422
0.13465
0.156191
0.175074
0.191331
0.205034
0.0410087
0.0730367
0.102551
0.129506
0.153899
0.175761
0.195131
0.212048
0.226561
0.238737
0.094788
0.123712
0.150367
0.174683
0.196638
0.216259
0.233582
0.248663
0.26155
0.272316
0.147535
0.173464
0.197345
0.219113
0.238728
0.256225
0.271621
0.284977
0.296346
0.305797
0.19934
0.22237
0.243569
0.262869
0.28025
0.295705
0.309278
0.321016
0.330975
0.339206
0.2503
0.270514
0.289111
0.306039
0.321261
0.334778
0.346616
0.356827
0.365452
0.37256
0.300471
0.317969
0.334053
0.348675
0.361821
0.37347
0.383664
0.392425
0.399813
0.405872
0.349938
0.364788
0.378434
0.390843
0.401975
0.411846
0.420464
0.427853
0.43407
0.439158
0.398745
0.411033
0.422313
0.432572
0.441779
0.449932
0.457042
0.463135
0.468259
0.47244
0.446953
0.456742
0.465739
0.473917
0.481259
0.487761
0.49343
0.498294
0.50239
0.505731
0.494593
0.501974
0.508749
0.514914
0.520448
0.525366
0.529661
0.533352
0.536476
0.539033
0.541714
0.546747
0.551376
0.555587
0.55939
0.56277
0.565746
0.56833
0.570527
0.572375
0.588344
0.591096
0.593637
0.595969
0.598086
0.600004
0.601715
0.603237
0.604584
0.60576
0.634507
0.635045
0.635563
0.636062
0.636569
0.637067
0.63757
0.638094
0.638625
0.639194
)
;

boundaryField
{
    down
    {
        type            symmetryPlane;
    }
    right
    {
        type            calculated;
        value           uniform 0;
    }
    up
    {
        type            symmetryPlane;
    }
    left
    {
        type            calculated;
        value           nonuniform List<scalar> 
30
(
1.21491
1.13841
1.06246
0.987107
0.912366
0.838268
0.764851
0.692126
0.620141
0.548903
0.481224
0.416695
0.35287
0.289725
0.227247
0.165442
0.104316
0.043855
0.0159153
0.0750088
0.133429
0.191171
0.248236
0.304647
0.360409
0.415521
0.470015
0.523883
0.577163
0.629846
)
;
    }
    cylinder
    {
        type            symmetry;
    }
    defaultFaces
    {
        type            empty;
    }
}


// ************************************************************************* //
