/*--------------------------------*- C++ -*----------------------------------*\
| =========                 |                                                 |
| \\      /  F ield         | OpenFOAM: The Open Source CFD Toolbox           |
|  \\    /   O peration     | Version:  2206                                  |
|   \\  /    A nd           | Website:  www.openfoam.com                      |
|    \\/     M anipulation  |                                                 |
\*---------------------------------------------------------------------------*/
FoamFile
{
    version     2.0;
    format      ascii;
    arch        "LSB;label=32;scalar=64";
    class       volScalarField;
    location    "0";
    object      error_grad_Phi;
}
// * * * * * * * * * * * * * * * * * * * * * * * * * * * * * * * * * * * * * //

dimensions      [0 1 -1 0 0 0 0];

internalField   nonuniform List<scalar> 
2000
(
0.104435
0.15112
0.0707224
0.0274771
0.00763275
0.0122521
0.0175519
0.0185155
0.0163665
0.00991874
0.0924152
0.115252
0.0548446
0.0325489
0.0272717
0.0251732
0.0220499
0.0176553
0.0122432
0.00375282
0.0784467
0.073292
0.0426926
0.0420435
0.0401775
0.0341818
0.0262418
0.0181172
0.010863
0.00487709
0.0681469
0.0288545
0.0370449
0.0462616
0.0438559
0.0358954
0.0265096
0.018047
0.0118707
0.00812399
0.0671738
0.0165535
0.0368018
0.0424541
0.0391603
0.0323585
0.0250336
0.0187279
0.0139029
0.0101644
0.0767527
0.0596398
0.0416336
0.0316007
0.0293417
0.0286066
0.0260021
0.0215321
0.0162747
0.0112363
0.0931156
0.100518
0.0531699
0.0183714
0.0201155
0.0290943
0.0296142
0.0247111
0.0176986
0.0108535
0.111207
0.138408
0.0699183
0.0158404
0.0183935
0.0329013
0.0333574
0.0264237
0.0170847
0.00864672
0.126338
0.171883
0.0884848
0.0266227
0.0223406
0.0360652
0.0349322
0.0256173
0.0145523
0.00540356
0.135097
0.199634
0.105206
0.0371547
0.0243371
0.0360011
0.0334807
0.0227726
0.0108474
0.00330642
0.153903
0.12892
0.1661
0.210598
0.192371
0.141159
0.0841365
0.0385275
0.0190536
0.0261575
0.374063
0.321891
0.276849
0.253682
0.206512
0.146123
0.0913125
0.0566753
0.0472395
0.0489556
0.287783
0.247037
0.18832
0.171699
0.136353
0.0881678
0.0434376
0.0222146
0.0342311
0.0457195
0.209744
0.193183
0.110249
0.101809
0.082407
0.0498156
0.0170272
0.0133315
0.0310772
0.0423251
0.146076
0.168512
0.0501547
0.0483832
0.052237
0.0424645
0.0329175
0.0303027
0.0331863
0.0375235
0.105246
0.170377
0.0385194
0.0269094
0.0491382
0.0526205
0.048404
0.0417357
0.035259
0.0314221
0.0932531
0.183101
0.0655116
0.0397038
0.0533785
0.0577096
0.0537637
0.0453376
0.03526
0.0253392
0.10014
0.192634
0.0847495
0.0482693
0.0501621
0.0524592
0.0492469
0.0423876
0.0336622
0.0233469
0.108566
0.191488
0.0906915
0.0455222
0.0368067
0.0380253
0.0376179
0.0347512
0.0303903
0.0254699
0.110503
0.177486
0.0844906
0.0351117
0.0163361
0.0191822
0.0237481
0.0247858
0.0225276
0.0195583
0.0305741
0.0273439
0.018689
0.00742842
0.0041679
0.0139946
0.0206293
0.0234258
0.0225976
0.0190986
0.0144286
0.0104947
0.00894298
0.00922276
0.00942962
0.00928331
0.0107699
0.0160107
0.0246074
0.0127501
0.0482621
0.0422181
0.0313723
0.0180192
0.00482911
0.00787129
0.0162081
0.0210179
0.0227432
0.0227187
0.0224773
0.0229752
0.0240506
0.0249602
0.0251797
0.0248749
0.0250517
0.0273337
0.0328289
0.0450898
0.0495077
0.0460987
0.036975
0.0245556
0.0114258
0.0024001
0.00961195
0.0146819
0.0168026
0.0172088
0.0174022
0.0181968
0.0192984
0.0199537
0.0197608
0.0191042
0.0194383
0.022696
0.0296216
0.074636
0.0470706
0.0455363
0.0384841
0.0277967
0.0158155
0.00495754
0.00417908
0.00919516
0.0115197
0.012201
0.0126381
0.0135594
0.0145723
0.0149197
0.0143373
0.01357
0.0147578
0.0198423
0.0285028
0.0931485
0.0410108
0.0412263
0.0365425
0.0282764
0.0181793
0.00839426
0.00141808
0.00493292
0.00729924
0.00804707
0.00849418
0.0093415
0.010145
0.0101622
0.00925411
0.00885562
0.011999
0.0192791
0.0293884
0.0997457
0.0320355
0.0344533
0.0324268
0.0270279
0.0191644
0.0106834
0.00350812
0.00204116
0.00423163
0.004779
0.00491476
0.00554306
0.00615918
0.00588828
0.0048168
0.00596409
0.0117475
0.0205783
0.0315976
0.0962332
0.0211898
0.0268185
0.027937
0.0253729
0.0193675
0.011818
0.00484807
0.000161286
0.00238534
0.0025219
0.00173271
0.00206639
0.0027855
0.0023287
0.00164644
0.00591954
0.0131436
0.0227006
0.0343122
0.0852339
0.0128955
0.0210403
0.0251655
0.0238846
0.0183231
0.0110385
0.00454477
0.0023559
0.00371417
0.00355629
0.00227002
0.0014851
0.00179964
0.001345
0.0022647
0.00720692
0.0147979
0.0247859
0.0369187
0.0696622
0.0158523
0.0213121
0.0231608
0.0197323
0.0137788
0.00796474
0.00560138
0.00684002
0.00761601
0.00693253
0.0054912
0.00432613
0.00375203
0.00306129
0.00351338
0.00808469
0.0158982
0.0263479
0.0391194
0.0523676
0.0212657
0.0212001
0.0165732
0.0120239
0.00780788
0.00611674
0.00760876
0.00920785
0.00944366
0.0083545
0.00671316
0.00544812
0.00468811
0.00358471
0.00320415
0.00782761
0.0161227
0.02723
0.040795
0.0358937
0.0131093
0.0147351
0.0102248
0.00466194
0.00116242
0.00484481
0.0076535
0.00890208
0.00862164
0.00733139
0.0059519
0.00525508
0.00474302
0.00324169
0.00197601
0.00756558
0.0165596
0.028291
0.0424988
0.0225015
0.0072034
0.00778782
0.00542135
0.0032308
0.00412064
0.00639702
0.00788149
0.0080796
0.00718083
0.00592845
0.00530411
0.00541046
0.00504601
0.00307269
0.0012273
0.00807938
0.0176543
0.0298441
0.0444466
0.0119082
0.00787577
0.0081931
0.00700493
0.00655653
0.0070035
0.0074596
0.00733762
0.00643918
0.00523918
0.00486047
0.00572568
0.00662938
0.00640908
0.00454354
0.00331309
0.00920146
0.0189655
0.031473
0.0464013
0.00468549
0.00892889
0.009437
0.00886616
0.00837557
0.00771171
0.00677989
0.00540715
0.00396586
0.00394362
0.00576742
0.00784157
0.00907382
0.0088938
0.00730476
0.0064806
0.0112075
0.0207172
0.033343
0.0484984
0.00042065
0.00933099
0.00988955
0.00926563
0.00819767
0.00667877
0.00457259
0.00227601
0.00259238
0.00560744
0.00867522
0.0110531
0.0122639
0.0120195
0.0106108
0.00995614
0.01389
0.0229077
0.0354842
0.0507789
0.00472661
0.00860644
0.00914922
0.00843259
0.00700277
0.0047625
0.00184597
0.00185634
0.00550323
0.00916615
0.0123567
0.0146405
0.0156685
0.0152966
0.0139293
0.0133365
0.0167888
0.0253526
0.0378006
0.0531596
0.0139338
0.00759315
0.00822748
0.00763874
0.00618359
0.00432138
0.00373923
0.00596976
0.00942891
0.0129656
0.0159737
0.018023
0.0187985
0.018244
0.0168231
0.0162386
0.0194331
0.0276875
0.0400553
0.0555026
0.0280922
0.0077848
0.00855422
0.00823081
0.00737493
0.00660533
0.00731319
0.00968319
0.0129196
0.0162103
0.0189524
0.0207156
0.0212235
0.0204393
0.018895
0.0182826
0.0213788
0.0295571
0.0419578
0.0575564
0.0467953
0.0094295
0.0100226
0.00993188
0.00938115
0.00920963
0.0101356
0.0123753
0.0153652
0.0183915
0.0208739
0.0223696
0.0225909
0.0215476
0.0198074
0.0191086
0.0222589
0.030581
0.0432121
0.0590723
0.0690531
0.0112492
0.0117265
0.0114846
0.0110201
0.0107287
0.0115703
0.0135851
0.0163667
0.0191987
0.021484
0.0227467
0.0227139
0.0213811
0.0193334
0.0184359
0.0217547
0.0304994
0.0435539
0.0598145
0.093448
0.0123549
0.0126164
0.0121622
0.0113565
0.0107732
0.0112347
0.0130725
0.0157667
0.0185563
0.0207668
0.0219018
0.0216517
0.0199528
0.0174006
0.0160784
0.0196683
0.029134
0.0428425
0.0596278
0.118232
0.0123505
0.0122628
0.0115109
0.0101678
0.00903771
0.00903167
0.0108727
0.0137934
0.0167959
0.0191307
0.0202749
0.0198379
0.0176946
0.0142861
0.0119854
0.0159689
0.0265199
0.0410666
0.0584678
0.141412
0.0113725
0.0110251
0.00986503
0.00788755
0.00568132
0.0050977
0.00763238
0.0113509
0.0148998
0.0175877
0.0188934
0.0184087
0.0158609
0.0112616
0.00644124
0.0109587
0.0230476
0.0384404
0.0564207
0.160866
0.0100615
0.00978053
0.0085096
0.00615342
0.00279311
0.00155144
0.0061368
0.0107216
0.0147915
0.0178599
0.0194649
0.019171
0.0166498
0.0116413
0.00402207
0.00660815
0.0197399
0.0355385
0.0537999
0.174433
0.0097261
0.0101195
0.00958773
0.00836943
0.00715069
0.00751819
0.0102801
0.0141781
0.0180995
0.0212881
0.0231751
0.0233107
0.0213721
0.0173013
0.0117953
0.00993257
0.018731
0.0333056
0.051134
0.180048
0.0115747
0.0130476
0.01374
0.0139085
0.0139979
0.015029
0.0173579
0.0206658
0.0242792
0.0274768
0.0296361
0.0302743
0.0290776
0.0260443
0.0218133
0.01886
0.0221087
0.0330812
0.0491965
0.175866
0.0155491
0.018014
0.0197105
0.0206731
0.0216539
0.0231027
0.0254224
0.0285386
0.0320264
0.0352946
0.0377487
0.0388896
0.0384002
0.036202
0.0327608
0.0294903
0.0294697
0.0359079
0.0488685
0.160406
0.0208953
0.0241175
0.0264382
0.0281551
0.0296036
0.0314167
0.0338393
0.0369342
0.0404337
0.0438481
0.0466203
0.0482674
0.0484291
0.0469665
0.0441458
0.0408652
0.0391325
0.0418238
0.050849
0.132872
0.0270412
0.0308589
0.0337107
0.0358768
0.0376884
0.0397752
0.0422746
0.0453892
0.0489369
0.0525275
0.0556438
0.0577867
0.058574
0.0578023
0.0555826
0.0525001
0.0499076
0.0500325
0.0552887
0.0942783
0.0254616
0.0277102
0.0282333
0.0271365
0.024828
0.0217722
0.018756
0.0171282
0.0178007
0.0203646
0.0235118
0.0260628
0.0272449
0.0266061
0.0241113
0.020528
0.0186656
0.023343
0.0353065
0.0317204
0.00554096
0.00149193
0.00209372
0.00447541
0.00521588
0.00498226
0.0053259
0.00520379
0.00423649
0.00620493
0.00791401
0.00501713
0.00214852
0.000517776
0.000601349
0.00140481
0.00403105
0.00863984
0.0124053
0.00652028
0.00822864
0.00607215
0.00355211
0.00162435
0.0017442
0.00366131
0.00714647
0.0116234
0.0107821
0.00129182
0.00747785
0.0062709
0.00450129
0.00334642
0.0042724
0.0063805
0.00879187
0.0099497
0.00610125
0.00546962
0.00664103
0.00658218
0.00602308
0.00588781
0.00701239
0.00845824
0.00911238
0.00701952
0.0024011
0.00656214
0.00640171
0.00760838
0.00804803
0.00856746
0.00942969
0.0100442
0.00907256
0.00545942
0.000608967
0.00617493
0.00687313
0.00913754
0.0102837
0.0110089
0.0114043
0.0112851
0.00944145
0.00615536
0.00355981
0.00571156
0.00802187
0.0107539
0.0123487
0.0130732
0.0131657
0.0122075
0.0102499
0.00785996
0.00649207
0.00681999
0.00937887
0.0123616
0.0141645
0.0148026
0.0143581
0.0129936
0.01105
0.00940341
0.00898273
0.00895377
0.0107735
0.0138437
0.0156332
0.0160817
0.0153058
0.0136004
0.0115761
0.010595
0.0106576
0.0108723
0.0121267
0.0150492
0.0166927
0.0170423
0.0159545
0.0138722
0.0118697
0.0110332
0.0114077
0.0119679
0.0131685
0.0158229
0.0174131
0.0175845
0.0162352
0.0138926
0.0116601
0.0106857
0.0111833
0.0119522
0.0137808
0.0162833
0.0177683
0.0177627
0.0161561
0.0135415
0.0110047
0.00972776
0.0100195
0.0109614
0.0139069
0.016339
0.0177526
0.0174613
0.0156083
0.0127231
0.00972333
0.00800793
0.00838526
0.00947821
0.0136905
0.01607
0.0172771
0.0167283
0.0147048
0.0114595
0.00780832
0.00578541
0.00667887
0.00851673
0.0131262
0.0154851
0.0164803
0.0157595
0.0133631
0.00959144
0.00540715
0.00353272
0.0062905
0.00925973
0.0123122
0.0146351
0.0153856
0.0144061
0.0116334
0.00745709
0.00244622
0.00348112
0.00823959
0.0123543
0.0116878
0.0138695
0.0144074
0.0130376
0.00989107
0.00537721
0.00142669
0.00644157
0.0120927
0.0169719
0.0117186
0.013485
0.0136593
0.0120486
0.00881926
0.00482652
0.00527949
0.010805
0.0168976
0.0223867
0.0122104
0.0136376
0.0134861
0.0114993
0.00777948
0.00296113
0.0042826
0.0104953
0.0165113
0.0216549
0.0751528
0.0887348
0.100659
0.105619
0.108987
0.127813
0.156555
0.132454
0.0447459
0.139398
0.0540893
0.0687024
0.0805387
0.0879132
0.0950574
0.107514
0.111815
0.0592526
0.11561
0.154345
0.0283636
0.0427291
0.0530137
0.0612376
0.0698524
0.0763325
0.0628337
0.0133681
0.178578
0.160943
0.0101336
0.0181559
0.0246158
0.0319568
0.0407562
0.042841
0.0240782
0.0673051
0.222934
0.155813
0.0119345
0.00836416
0.00352216
0.00884662
0.0171621
0.0163502
0.0289049
0.104987
0.247524
0.140973
0.0130309
0.0120651
0.0100839
0.0108855
0.0109573
0.00423454
0.0443176
0.124958
0.255896
0.123927
0.00916842
0.0106184
0.0130501
0.0171447
0.0154242
0.00340078
0.0500631
0.131941
0.254201
0.11509
0.00569562
0.00561236
0.012286
0.020252
0.019977
0.00586446
0.0497206
0.13153
0.247154
0.118629
0.00535899
0.00274911
0.0140234
0.024367
0.0260696
0.014515
0.0475423
0.126757
0.236331
0.128332
0.00447594
0.00670793
0.018317
0.029479
0.0322824
0.0215652
0.0439017
0.118039
0.221002
0.135542
0.0794772
0.0980708
0.0974008
0.0740499
0.128733
0.306385
0.508242
0.591977
0.402927
0.190429
0.14604
0.168127
0.183484
0.192396
0.232312
0.369962
0.578233
0.721184
0.649107
0.519427
0.121343
0.144692
0.15889
0.157388
0.166866
0.275134
0.474089
0.628515
0.573208
0.438357
0.1006
0.124821
0.138486
0.13008
0.112495
0.196231
0.386935
0.54465
0.497338
0.357883
0.08553
0.109554
0.122628
0.109982
0.0679171
0.133678
0.319164
0.472648
0.424013
0.283752
0.0770862
0.0995916
0.112196
0.098222
0.0387214
0.0933661
0.271772
0.412634
0.353637
0.220254
0.0748174
0.0950283
0.107388
0.0955691
0.0449923
0.0852963
0.242902
0.3615
0.284436
0.170259
0.0770534
0.0953233
0.108061
0.100556
0.0706178
0.102012
0.226226
0.313445
0.212977
0.136391
0.0830269
0.0986602
0.110974
0.108398
0.0943794
0.122087
0.211739
0.261805
0.136873
0.121441
0.0864341
0.0994538
0.110613
0.111886
0.10851
0.132463
0.190193
0.201597
0.059054
0.124861
117.253
0.0422302
0.0307919
0.0196411
0.00938847
0.00728782
0.015973
0.025737
0.035062
0.0436553
0.0512745
0.057557
0.0621661
0.0645832
0.0643147
0.0608229
0.0537951
0.0453461
0.0436478
0.0574326
116.544
0.0451835
0.0348537
0.0253831
0.0183623
0.0171089
0.0224095
0.0308759
0.0403248
0.0501145
0.0597549
0.0691928
0.0781867
0.0865649
0.0938404
0.10007
0.10519
0.11007
0.11685
0.127562
115.166
0.0472911
0.0371382
0.0274163
0.0190585
0.0140169
0.0154389
0.0216553
0.0293419
0.0374112
0.0454482
0.0531644
0.0603823
0.0670147
0.0728084
0.0774948
0.0814139
0.0852355
0.0915181
0.10211
113.168
0.0490182
0.039027
0.0295602
0.0207411
0.0136223
0.0108184
0.0138912
0.0198874
0.0261969
0.0325693
0.0384995
0.0440103
0.0488832
0.0530387
0.0562465
0.0588221
0.0620542
0.0685246
0.0804233
110.618
0.0504084
0.0406567
0.0312583
0.0224679
0.0146786
0.00884119
0.00792448
0.011805
0.0166795
0.021265
0.0254532
0.028978
0.0319974
0.0344619
0.0363551
0.0381338
0.0415524
0.0498811
0.0647628
107.603
0.0513921
0.0416356
0.0323963
0.0236875
0.0157346
0.00893478
0.00419789
0.00525426
0.00897799
0.0121757
0.0143809
0.0157365
0.016469
0.0168735
0.0176578
0.0201075
0.0263726
0.0387085
0.056877
104.219
0.0518391
0.042069
0.0329101
0.0242936
0.0164055
0.00940438
0.00349049
0.00132485
0.00489137
0.00718402
0.00808414
0.0071556
0.0047218
0.000813113
0.00532108
0.01325
0.0237624
0.037844
0.0557281
100.566
0.0519466
0.0420553
0.0327923
0.0241139
0.0163267
0.00962786
0.00460209
0.00413446
0.00678518
0.0089352
0.0100002
0.0101707
0.0104844
0.0125609
0.0176271
0.0254449
0.0351891
0.0461273
0.0590171
96.7445
0.051508
0.0415568
0.032156
0.0234062
0.0155774
0.00937403
0.00608875
0.00739331
0.0102975
0.0127712
0.014347
0.0154644
0.0169833
0.0203472
0.0268129
0.0365941
0.0491075
0.0611902
0.0679154
92.8346
0.0505975
0.0408264
0.0312127
0.0223197
0.0145592
0.00908019
0.00832667
0.0111262
0.0145352
0.0173569
0.0194632
0.0213759
0.0237684
0.0276434
0.0340778
0.0434974
0.055618
0.0698922
0.0802969
90.4856
0.0519636
0.0411755
0.0307617
0.0213983
0.0137742
0.00957025
0.0110116
0.0151103
0.0192416
0.0226292
0.0254001
0.0277751
0.0301711
0.0332683
0.0376629
0.043416
0.0506165
0.0586022
0.0657849
90.423
0.0540096
0.0419224
0.0308672
0.0208614
0.0130762
0.0101407
0.0132381
0.0184383
0.0232446
0.0272841
0.030384
0.0326337
0.0343229
0.0360278
0.0376858
0.0394406
0.0410664
0.042246
0.0425708
90.3572
0.0550019
0.0420996
0.030279
0.0198255
0.0118667
0.0102635
0.0150483
0.021005
0.0263102
0.0305181
0.0332457
0.0348652
0.0354479
0.0351662
0.0341626
0.0325393
0.0300149
0.0266199
0.0215055
90.2888
0.0553229
0.0418775
0.0293963
0.0182195
0.0100671
0.0102744
0.0166609
0.0232747
0.0288252
0.03263
0.0348019
0.0353115
0.0341662
0.0316198
0.0281072
0.0234305
0.0176047
0.0107919
0.00319085
90.2182
0.0553775
0.0413738
0.0282305
0.0163848
0.00797907
0.0106226
0.018318
0.0253149
0.0306089
0.0338684
0.0350293
0.0339867
0.0308365
0.026054
0.0200716
0.0133901
0.0075666
0.00743485
0.0152051
90.1461
0.0551774
0.0406388
0.0267676
0.0142254
0.00575452
0.01142
0.0199178
0.0269427
0.0318523
0.0343106
0.0342072
0.0313664
0.0260479
0.0188963
0.0110511
0.00763721
0.0128985
0.0198574
0.0268557
90.0729
0.0548138
0.0397031
0.0252374
0.01199
0.00386263
0.012624
0.0215256
0.0284106
0.0327516
0.0342051
0.03249
0.0276411
0.0200638
0.0106196
0.00544901
0.0140715
0.0232889
0.0300397
0.0340879
89.9994
0.054362
0.038671
0.0237831
0.00981142
0.00350332
0.0142171
0.0232429
0.0297506
0.0332067
0.0332955
0.0299593
0.0232503
0.0135324
0.00228699
0.011322
0.0231379
0.0321339
0.0369258
0.0372461
89.9262
0.0537556
0.0376607
0.0223107
0.0078591
0.00508615
0.0161119
0.0248693
0.0306366
0.0331278
0.0320999
0.027206
0.0187307
0.00740181
0.00631709
0.0194997
0.0308515
0.0382854
0.0404536
0.037033
89.854
0.0531376
0.0365054
0.0208032
0.00659474
0.00737046
0.0180561
0.0262626
0.0314011
0.0329342
0.0305233
0.0242572
0.0147551
0.00533085
0.0137894
0.0264777
0.0365271
0.0417525
0.0409972
0.0341614
89.7835
0.052355
0.035452
0.0196204
0.00617612
0.00979707
0.0199153
0.0275868
0.0319091
0.0323721
0.0288298
0.0215859
0.0121942
0.00937424
0.0201388
0.0317458
0.0399722
0.042609
0.0390769
0.0295549
89.7154
0.0515055
0.0343839
0.0184896
0.00659
0.0120944
0.0216607
0.0285992
0.0320505
0.0316325
0.0272288
0.0195733
0.0118189
0.0143696
0.0251024
0.0352072
0.0411649
0.0412774
0.0353039
0.0239272
89.6503
0.0504889
0.0331758
0.0174857
0.00766227
0.0140834
0.0231168
0.0294007
0.0320256
0.0307194
0.0256681
0.0182555
0.0132679
0.0185003
0.028436
0.0367156
0.0403622
0.038202
0.0303503
0.0180699
89.5888
0.0493837
0.0320281
0.0167107
0.00889208
0.0159285
0.0243499
0.0299483
0.0316783
0.0297107
0.0243247
0.0175252
0.0152621
0.0214384
0.0302756
0.0364854
0.0378903
0.033783
0.0246621
0.0122284
89.5316
0.0482216
0.0307151
0.0158075
0.0100633
0.0174273
0.0252823
0.0300897
0.0312159
0.0286817
0.0232246
0.0174159
0.0170108
0.0232575
0.0305214
0.0346448
0.0341263
0.0284277
0.0187874
0.00699157
89.4795
0.0467309
0.029404
0.0151415
0.0111526
0.018559
0.0258827
0.0300435
0.030533
0.0274865
0.0221552
0.0175262
0.0181743
0.0238522
0.0293311
0.0315396
0.029235
0.0225855
0.0131509
0.00324422
89.4326
0.0453118
0.028062
0.0143586
0.0120462
0.0193954
0.0261678
0.0296907
0.0296091
0.0263681
0.0212006
0.0173467
0.0185032
0.0230641
0.0268074
0.0272527
0.0236665
0.0167121
0.00827264
0.00456478
89.3919
0.043603
0.0265154
0.0135291
0.0125681
0.0200134
0.0261672
0.0290738
0.0285211
0.0250944
0.0203275
0.0169879
0.0178987
0.0212152
0.0232454
0.0221716
0.0177912
0.0112309
0.00579839
0.00826608
89.3576
0.0418573
0.0248964
0.0125552
0.0128693
0.0202199
0.0258995
0.0283088
0.0273388
0.0237662
0.0191738
0.0161999
0.0164651
0.0183729
0.0187149
0.0165209
0.0119655
0.00719582
0.00764711
0.0119174
89.3303
0.0376126
0.0201628
0.00561513
0.00915639
0.0181847
0.0237238
0.0254734
0.0236049
0.0188274
0.0122148
0.00608993
0.00625856
0.00990219
0.0115244
0.0102545
0.00661759
0.00252238
0.00449148
0.00844392
0.0620273
0.0376073
0.0124808
0.0122651
0.0162782
0.0122444
0.00569639
0.00636999
0.00902809
0.00862852
0.0371615
0.0205906
0.0149822
0.020247
0.0184778
0.0105233
0.00129519
0.00623459
0.00979038
0.00997646
0.0100925
0.0183826
0.0241798
0.0219858
0.0155858
0.00826883
0.00561933
0.00793981
0.00952842
0.00946309
0.0134302
0.026182
0.0274879
0.0201537
0.0118972
0.00920058
0.00973897
0.00937678
0.00849834
0.00797224
0.0257171
0.031161
0.0266476
0.0163984
0.0101809
0.0121208
0.0126973
0.0101109
0.00700324
0.00623771
0.0323506
0.0315542
0.0230903
0.0131434
0.0121118
0.015143
0.0143006
0.0100378
0.00531808
0.00442987
0.0343369
0.0283507
0.0184087
0.0128492
0.0157423
0.017485
0.0149398
0.00947144
0.00351295
0.00329962
0.0325995
0.023077
0.0145106
0.0152506
0.0190291
0.0189605
0.0148753
0.00860112
0.00202034
0.00373928
0.0284074
0.0171393
0.0131661
0.0182704
0.0212422
0.0194906
0.0143965
0.00798272
0.00270296
0.00525956
0.0227202
0.0118038
0.0143298
0.0206553
0.0222838
0.0193822
0.0137922
0.00781602
0.00443704
0.00701892
0.0165156
0.00877522
0.0163121
0.0219997
0.0223013
0.0186171
0.0132172
0.00815707
0.00624848
0.00861938
0.0104689
0.00874679
0.0179131
0.0222868
0.0215272
0.0175571
0.012553
0.0085404
0.00764612
0.00987052
0.00502293
0.0105445
0.0186676
0.0215849
0.0201013
0.0161739
0.0117792
0.00873221
0.00844219
0.0107202
0.00172215
0.0122439
0.0187344
0.020251
0.0182383
0.0145443
0.0106764
0.00828619
0.0085471
0.0109441
0.00450923
0.0135057
0.0180922
0.0185601
0.0161877
0.0126264
0.00921716
0.00727726
0.00792478
0.0106211
0.00766088
0.0143298
0.0172212
0.0166851
0.0140579
0.0105602
0.00726887
0.0055822
0.00682188
0.0100121
0.010459
0.0150522
0.0163659
0.0150251
0.0121735
0.00868063
0.00509842
0.00314997
0.00550301
0.0091181
0.0129983
0.0158582
0.0159774
0.0141149
0.0111204
0.00753371
0.00372896
0.000364279
0.00451179
0.00837826
0.0154367
0.0170433
0.0164033
0.0142833
0.0114498
0.00829643
0.0051409
0.00354897
0.00555673
0.00885263
0.0113149
0.0125404
0.0119335
0.0103212
0.00808497
0.00527794
0.00254035
0.00286931
0.00621564
0.0095618
)
;

boundaryField
{
    down
    {
        type            symmetryPlane;
    }
    right
    {
        type            calculated;
        value           nonuniform List<scalar> 
30
(
0.0295488
0.049715
0.0958022
0.123308
0.132129
0.125441
0.107422
0.0825945
0.0553662
0.0298479
0.0112517
0.0141389
0.0243575
0.0287352
0.0255914
0.0155821
0.0137389
0.0375258
0.0697716
0.10599
0.143254
0.1785
0.208488
0.229942
0.239691
0.234848
0.212994
0.172489
0.11368
0.026558
)
;
    }
    up
    {
        type            symmetryPlane;
    }
    left
    {
        type            calculated;
        value           nonuniform List<scalar> 
30
(
176.17
175.07
172.937
169.856
165.943
161.337
156.187
150.645
144.854
138.939
135.758
135.664
135.566
135.464
135.359
135.25
135.141
135.03
134.92
134.811
134.705
134.603
134.504
134.412
134.325
134.246
134.175
134.113
134.061
134.019
)
;
    }
    cylinder
    {
        type            symmetry;
    }
    defaultFaces
    {
        type            empty;
    }
}


// ************************************************************************* //
