/*--------------------------------*- C++ -*----------------------------------*\
| =========                 |                                                 |
| \\      /  F ield         | OpenFOAM: The Open Source CFD Toolbox           |
|  \\    /   O peration     | Version:  2206                                  |
|   \\  /    A nd           | Website:  www.openfoam.com                      |
|    \\/     M anipulation  |                                                 |
\*---------------------------------------------------------------------------*/
FoamFile
{
    version     2.0;
    format      ascii;
    arch        "LSB;label=32;scalar=64";
    class       volScalarField;
    location    "0";
    object      error_U;
}
// * * * * * * * * * * * * * * * * * * * * * * * * * * * * * * * * * * * * * //

dimensions      [0 1 -1 0 0 0 0];

internalField   nonuniform List<scalar> 
2000
(
1.10447
0.966932
0.866207
0.791582
0.735835
0.693958
0.662416
0.63865
0.620771
0.607318
1.1618
1.01936
0.913438
0.83344
0.772248
0.724963
0.688113
0.659202
0.636413
0.618465
1.21093
1.06377
0.952993
0.868069
0.801971
0.749832
0.708221
0.674666
0.647326
0.624809
1.25171
1.10009
0.984814
0.895429
0.824921
0.768476
0.722661
0.68502
0.6537
0.627276
1.28408
1.12832
1.00897
0.915581
0.841163
0.780924
0.73145
0.690305
0.655662
0.626163
1.30812
1.14862
1.02561
0.928652
0.850801
0.787247
0.734609
0.690454
0.652971
0.620846
1.32401
1.16118
1.03495
0.934889
0.854035
0.787606
0.732216
0.685441
0.645474
0.610997
1.33205
1.16633
1.03732
0.934571
0.851143
0.782224
0.724461
0.675392
0.633226
0.596638
1.3326
1.16448
1.03312
0.928114
0.842498
0.771463
0.711645
0.660581
0.616475
0.577994
1.32614
1.15609
1.02285
0.916003
0.828573
0.75577
0.694196
0.641425
0.595636
0.555476
0.307831
0.142087
0.0526652
0.123785
0.208688
0.28239
0.345928
0.401226
0.449912
0.493277
0.358765
0.21547
0.149923
0.17131
0.229203
0.290116
0.34626
0.396604
0.441612
0.482024
0.436082
0.309529
0.248854
0.245814
0.276393
0.318876
0.36295
0.404926
0.443753
0.47935
0.525495
0.407107
0.344746
0.326407
0.336658
0.36151
0.392106
0.42392
0.454908
0.484253
0.618919
0.503106
0.436511
0.406604
0.401593
0.411508
0.429299
0.450639
0.473091
0.495364
0.711933
0.595362
0.523433
0.483882
0.466794
0.46433
0.470768
0.482235
0.496255
0.511265
0.801933
0.68263
0.604904
0.556915
0.529837
0.517042
0.513686
0.516345
0.522642
0.530891
0.887228
0.76404
0.680384
0.624822
0.589215
0.567669
0.555935
0.550987
0.550697
0.553524
0.966627
0.838906
0.749376
0.68692
0.643849
0.614732
0.595715
0.584106
0.578141
0.576936
1.03925
0.906677
0.811436
0.742645
0.692913
0.657074
0.631478
0.6135
0.601248
0.59324
0.531788
0.568019
0.601121
0.631559
0.659717
0.685924
0.710452
0.733534
0.755361
0.776089
0.795844
0.814721
0.832795
0.850127
0.866757
0.882721
0.898044
0.912742
0.926827
0.940305
0.518437
0.553182
0.585276
0.615026
0.642727
0.668648
0.693024
0.716058
0.737914
0.758727
0.778602
0.797621
0.815849
0.833337
0.850125
0.866248
0.881728
0.896586
0.910835
0.924483
0.512236
0.543876
0.573717
0.601844
0.628396
0.653534
0.677412
0.700166
0.721902
0.742704
0.762639
0.781761
0.800117
0.817746
0.834686
0.850969
0.86662
0.881662
0.89611
0.909976
0.512663
0.539738
0.566161
0.591803
0.616589
0.640524
0.663633
0.68593
0.707425
0.728124
0.748042
0.767198
0.785623
0.803349
0.820409
0.836836
0.852658
0.867898
0.882576
0.896704
0.519009
0.540392
0.562359
0.584782
0.607324
0.629766
0.651915
0.673605
0.694709
0.715153
0.734902
0.753958
0.772339
0.790075
0.807198
0.82374
0.839726
0.85518
0.870119
0.884553
0.53026
0.54524
0.561984
0.580773
0.600871
0.621682
0.642692
0.663527
0.683953
0.70385
0.723172
0.741915
0.760096
0.77774
0.79487
0.811508
0.827668
0.843364
0.858603
0.87339
0.545092
0.553517
0.564968
0.580307
0.59801
0.616958
0.636373
0.655803
0.675022
0.693933
0.712501
0.730712
0.748565
0.766057
0.783182
0.799935
0.81631
0.832301
0.847898
0.863094
0.561797
0.5647
0.572292
0.5847
0.599561
0.615694
0.632487
0.649659
0.667068
0.684619
0.702233
0.719836
0.737356
0.754734
0.771916
0.788857
0.805519
0.821874
0.837895
0.853565
0.578144
0.579573
0.585483
0.593765
0.603805
0.615516
0.628727
0.643207
0.658703
0.674965
0.691767
0.708916
0.726251
0.743643
0.760988
0.778204
0.795226
0.812007
0.828509
0.84471
0.585641
0.585761
0.587785
0.590934
0.597345
0.606825
0.618736
0.632493
0.647615
0.663719
0.680505
0.697737
0.715231
0.732846
0.75047
0.76802
0.785431
0.802657
0.819664
0.83643
0.589542
0.582287
0.578198
0.578461
0.583782
0.593227
0.605663
0.620173
0.636087
0.652925
0.670344
0.6881
0.706021
0.723981
0.741895
0.759703
0.777362
0.794845
0.81213
0.829206
0.590383
0.582761
0.579905
0.581221
0.586499
0.595172
0.606515
0.619864
0.634667
0.650501
0.66704
0.684044
0.701331
0.718769
0.736262
0.753739
0.771151
0.788461
0.805647
0.82269
0.585153
0.579851
0.57867
0.581069
0.586703
0.595153
0.605933
0.618549
0.632578
0.647659
0.663512
0.679903
0.696659
0.713651
0.730777
0.747963
0.765154
0.782312
0.799407
0.816424
0.575869
0.573888
0.5748
0.578503
0.584793
0.593398
0.603984
0.616215
0.629753
0.644315
0.659656
0.675572
0.691903
0.708528
0.725351
0.742283
0.75929
0.776316
0.793337
0.810333
0.564705
0.565823
0.568871
0.573975
0.581114
0.590125
0.600795
0.612899
0.626181
0.640417
0.655399
0.670972
0.686976
0.703315
0.719889
0.736631
0.75348
0.770406
0.787363
0.804347
0.552742
0.556444
0.561432
0.567934
0.575995
0.585561
0.596512
0.60867
0.621864
0.635931
0.650705
0.66604
0.681832
0.697952
0.714342
0.730928
0.747662
0.764504
0.781421
0.798408
0.540402
0.546199
0.552912
0.560719
0.569725
0.579931
0.591252
0.603605
0.616864
0.630885
0.64556
0.660769
0.676403
0.692387
0.708657
0.725132
0.741783
0.758565
0.775453
0.792446
0.527853
0.535404
0.543588
0.552598
0.562527
0.573391
0.585169
0.597799
0.611208
0.625284
0.639956
0.655108
0.670676
0.686577
0.70277
0.719177
0.73577
0.752524
0.769407
0.786417
0.515177
0.524213
0.533692
0.543785
0.554566
0.566099
0.57836
0.591332
0.604954
0.619167
0.633892
0.649066
0.664618
0.680498
0.696648
0.713029
0.729606
0.746346
0.763236
0.780266
0.502442
0.512738
0.52336
0.534415
0.546002
0.558169
0.570934
0.584278
0.598159
0.61255
0.627393
0.642637
0.658224
0.674115
0.690273
0.706651
0.723236
0.739985
0.756895
0.773958
0.489681
0.501077
0.512687
0.524617
0.536939
0.549721
0.562967
0.576686
0.590865
0.605466
0.620463
0.635816
0.651478
0.667421
0.683609
0.700028
0.716623
0.733414
0.750358
0.767456
0.476917
0.489272
0.501746
0.514456
0.527458
0.540804
0.554525
0.568636
0.583113
0.597948
0.613125
0.628606
0.644372
0.660399
0.67665
0.693111
0.70976
0.726586
0.743577
0.760725
0.464171
0.477359
0.490609
0.504011
0.517626
0.5315
0.545672
0.560144
0.574922
0.590007
0.605371
0.621017
0.636909
0.65303
0.669366
0.685894
0.70261
0.719494
0.736536
0.753737
0.451468
0.465381
0.479304
0.493325
0.507489
0.52185
0.536433
0.551259
0.566332
0.581662
0.597241
0.613043
0.62907
0.645308
0.661741
0.678357
0.695143
0.7121
0.729207
0.746476
0.438808
0.453347
0.467865
0.482425
0.497079
0.511878
0.526835
0.541999
0.557361
0.572934
0.588707
0.604694
0.620867
0.637233
0.653776
0.670483
0.687354
0.704387
0.721573
0.738904
0.426192
0.441273
0.45631
0.471342
0.486429
0.50161
0.516925
0.532392
0.548021
0.563823
0.579799
0.595961
0.612292
0.628787
0.645442
0.662254
0.679223
0.696336
0.713596
0.731014
0.41364
0.42918
0.444641
0.46008
0.475546
0.491074
0.506702
0.522439
0.538322
0.554342
0.57051
0.586837
0.603326
0.619953
0.636733
0.653653
0.670723
0.687931
0.705279
0.722769
0.401138
0.417063
0.432885
0.448669
0.464448
0.480269
0.496167
0.51216
0.528256
0.544483
0.560841
0.577334
0.593963
0.610733
0.62764
0.644672
0.661846
0.679154
0.696595
0.714172
0.388693
0.404913
0.421034
0.437088
0.453138
0.469218
0.485343
0.50155
0.517845
0.534258
0.550777
0.567435
0.584204
0.60111
0.618137
0.635293
0.652576
0.669987
0.687527
0.705197
0.3763
0.392744
0.409081
0.425362
0.44162
0.457896
0.474215
0.490603
0.507076
0.523642
0.540321
0.557124
0.574035
0.591067
0.608226
0.6255
0.642896
0.660415
0.678057
0.695825
0.518764
0.542701
0.563473
0.580683
0.593971
0.603065
0.607714
0.607661
0.602166
0.594119
0.486444
0.51087
0.53279
0.552026
0.56852
0.582246
0.592927
0.599333
0.599352
0.595674
0.457161
0.482013
0.504863
0.525539
0.543877
0.559559
0.571808
0.579469
0.58327
0.586767
0.430355
0.455514
0.478998
0.500531
0.519768
0.536147
0.548993
0.558272
0.56608
0.574374
0.405615
0.430933
0.454739
0.476679
0.496298
0.513131
0.526974
0.538589
0.549713
0.560697
0.382611
0.407978
0.431911
0.454027
0.473933
0.491386
0.5066
0.520446
0.533905
0.546552
0.361125
0.386468
0.410423
0.432652
0.452899
0.471127
0.487733
0.503371
0.518421
0.532269
0.340981
0.366275
0.390227
0.412586
0.433223
0.452255
0.470054
0.487028
0.503187
0.51802
0.322061
0.347288
0.371234
0.39374
0.414788
0.434538
0.453294
0.471228
0.488223
0.503885
0.304251
0.329408
0.353359
0.376013
0.397432
0.417776
0.437249
0.455876
0.473519
0.489907
0.287455
0.312538
0.336497
0.3593
0.381018
0.401812
0.421795
0.440938
0.459082
0.476084
0.271591
0.296591
0.320545
0.343456
0.365417
0.386522
0.406862
0.426362
0.444914
0.462434
0.256584
0.281491
0.305421
0.3284
0.350507
0.371824
0.392383
0.412147
0.431008
0.44894
0.242352
0.267141
0.291025
0.314025
0.336213
0.357646
0.37834
0.398264
0.417356
0.435624
0.228832
0.253496
0.277296
0.300265
0.322462
0.343933
0.364686
0.384707
0.403956
0.422449
0.215982
0.240481
0.264175
0.287076
0.309219
0.330663
0.351406
0.37145
0.390775
0.409443
0.20375
0.228061
0.251605
0.274387
0.296447
0.317801
0.338481
0.358479
0.377825
0.396575
0.192105
0.216191
0.239557
0.262178
0.284096
0.305322
0.325884
0.345784
0.365093
0.383857
0.181007
0.204847
0.227996
0.25043
0.272165
0.293213
0.313602
0.333371
0.352561
0.371267
0.170445
0.193995
0.216893
0.239105
0.260624
0.281466
0.301664
0.321236
0.340253
0.358819
0.278764
0.317824
0.361854
0.412194
0.470536
0.539195
0.621432
0.72194
0.847593
1.00875
0.29999
0.341101
0.387392
0.440035
0.50072
0.571796
0.656554
0.759708
0.888152
1.05226
0.322641
0.365858
0.414134
0.468734
0.531401
0.604521
0.691436
0.796886
0.927782
1.09451
0.347692
0.392573
0.442346
0.498404
0.56257
0.637281
0.725913
0.833222
0.966152
1.13508
0.376289
0.42165
0.47208
0.52894
0.594037
0.669824
0.759671
0.868358
1.00284
1.17353
0.407149
0.452338
0.502813
0.559896
0.625388
0.701717
0.792274
0.901839
1.03737
1.20928
0.438957
0.483607
0.533694
0.590555
0.655965
0.732379
0.823154
0.933101
1.06916
1.24178
0.470597
0.514447
0.563839
0.620111
0.685061
0.761115
0.851671
0.961514
1.09761
1.27037
0.5011
0.543935
0.592372
0.647759
0.711891
0.787209
0.877121
0.986402
1.12202
1.29441
0.529631
0.571236
0.618475
0.672689
0.735691
0.809926
0.898789
1.00706
1.14174
1.3132
0.0787034
0.0941009
0.114931
0.142532
0.178706
0.225883
0.287432
0.36812
0.474876
0.618065
0.102388
0.118159
0.13922
0.166875
0.202916
0.249787
0.310877
0.390984
0.497065
0.639498
0.127983
0.144811
0.166873
0.195396
0.232113
0.279442
0.340768
0.420907
0.52684
0.668983
0.151546
0.170182
0.19411
0.224437
0.262806
0.311569
0.374081
0.455144
0.561755
0.704358
0.171829
0.193031
0.219599
0.252521
0.293351
0.344385
0.408938
0.49179
0.599931
0.743819
0.188838
0.213415
0.243286
0.279382
0.323233
0.37712
0.444341
0.529659
0.640049
0.785966
0.203745
0.232383
0.265935
0.305459
0.352574
0.409604
0.479854
0.568079
0.681235
0.829765
0.219337
0.251842
0.288773
0.331502
0.381773
0.441952
0.515347
0.606693
0.722924
0.874457
0.239181
0.273507
0.312714
0.358045
0.411145
0.474307
0.550793
0.645301
0.764731
0.919474
0.261028
0.296224
0.337315
0.385008
0.440735
0.506715
0.586165
0.683758
0.806372
0.964372
0.12941
0.125065
0.117672
0.110414
0.103329
0.0964608
0.0898493
0.0835384
0.077575
0.072013
0.066914
0.0623517
0.0584211
0.055247
0.0530041
0.0519435
0.0524129
0.0548746
0.0598814
0.0680613
0.148494
0.144873
0.137191
0.129615
0.122183
0.114937
0.10792
0.101178
0.0947651
0.0887441
0.0831956
0.0782287
0.0739879
0.070678
0.0685772
0.0680444
0.0695109
0.0734483
0.080336
0.0906251
0.168696
0.164701
0.156648
0.148691
0.140873
0.133237
0.125832
0.118715
0.11195
0.105617
0.0998168
0.09468
0.0903902
0.0872005
0.085458
0.0856004
0.0881338
0.0935724
0.10241
0.114971
0.189378
0.184284
0.17573
0.167265
0.158933
0.150779
0.142862
0.135251
0.128026
0.121291
0.115164
0.109804
0.105418
0.102289
0.100806
0.101483
0.104923
0.111748
0.122546
0.137413
0.21009
0.203472
0.194276
0.185153
0.176143
0.167289
0.158657
0.15033
0.142414
0.135036
0.128358
0.122576
0.117929
0.11473
0.11339
0.114472
0.118684
0.126809
0.139633
0.156811
0.230542
0.222186
0.212222
0.202301
0.192448
0.182701
0.173125
0.16381
0.154882
0.146511
0.138911
0.132352
0.127157
0.123706
0.12245
0.123959
0.128981
0.138444
0.153452
0.172972
0.250574
0.240389
0.229555
0.218725
0.207895
0.197087
0.186354
0.175788
0.165521
0.15575
0.146749
0.138892
0.132656
0.128606
0.12735
0.129507
0.13574
0.146875
0.164269
0.186224
0.270105
0.258038
0.246277
0.234462
0.222548
0.210545
0.198497
0.186482
0.174628
0.16313
0.152295
0.142587
0.134682
0.129468
0.127958
0.131071
0.139403
0.153206
0.173119
0.197703
0.289085
0.27506
0.262415
0.249556
0.236435
0.223092
0.209587
0.195994
0.182426
0.169063
0.156213
0.144391
0.134439
0.127622
0.125585
0.129954
0.141645
0.160188
0.183452
0.210589
0.307316
0.291264
0.278174
0.264137
0.249595
0.234736
0.21967
0.204491
0.189334
0.174401
0.160048
0.146868
0.135849
0.128503
0.126819
0.13277
0.147405
0.169911
0.196303
0.225609
0.326611
0.309636
0.294991
0.279764
0.264177
0.248356
0.232397
0.2164
0.2005
0.1849
0.169921
0.156081
0.144207
0.135553
0.131826
0.134926
0.146295
0.166135
0.192692
0.225342
0.345504
0.328299
0.311889
0.295494
0.278927
0.262162
0.245223
0.22816
0.211065
0.19408
0.177455
0.161605
0.147232
0.135474
0.128017
0.126941
0.134058
0.149981
0.174087
0.206134
0.363456
0.345844
0.328474
0.311115
0.293623
0.275932
0.25804
0.239946
0.221702
0.203407
0.185231
0.167484
0.150731
0.135947
0.124706
0.119215
0.121772
0.1336
0.154361
0.183133
0.380984
0.362871
0.344758
0.326581
0.308254
0.289703
0.270908
0.251843
0.232536
0.213038
0.193446
0.17399
0.15509
0.137516
0.122632
0.112614
0.110192
0.117411
0.134286
0.15924
0.398267
0.379602
0.360834
0.341936
0.32285
0.303506
0.283874
0.263935
0.243664
0.223087
0.202254
0.181308
0.160558
0.140546
0.122362
0.10794
0.100215
0.10219
0.114768
0.136163
0.415377
0.396149
0.376775
0.357226
0.337441
0.317382
0.297005
0.276266
0.255141
0.233626
0.211731
0.189549
0.167253
0.145236
0.12426
0.105865
0.0927925
0.0888369
0.0964669
0.114395
0.432344
0.412576
0.392637
0.372477
0.352083
0.331374
0.310327
0.288888
0.267017
0.244695
0.221922
0.198727
0.175207
0.151613
0.128446
0.106773
0.0887746
0.0783915
0.080009
0.0940064
0.449203
0.428915
0.408442
0.387745
0.366776
0.345501
0.323852
0.301796
0.279301
0.256307
0.232816
0.208818
0.184371
0.159603
0.134823
0.11069
0.0886776
0.0720289
0.0663191
0.0751806
0.465954
0.445188
0.424225
0.403033
0.381564
0.35977
0.337608
0.31502
0.291985
0.268447
0.244376
0.219769
0.19463
0.169044
0.143147
0.117347
0.092477
0.0706492
0.0568857
0.0584664
0.482619
0.461408
0.440007
0.418364
0.39645
0.374194
0.351581
0.328547
0.305064
0.281077
0.25656
0.231487
0.205868
0.179718
0.153121
0.126286
0.0996454
0.0743341
0.0534807
0.0452741
0.499197
0.477593
0.455788
0.43375
0.411436
0.388786
0.365782
0.342367
0.318507
0.294152
0.269296
0.243887
0.217934
0.191438
0.164433
0.137027
0.109442
0.0821974
0.0567783
0.0384375
0.515718
0.493754
0.471588
0.449198
0.426521
0.403535
0.38019
0.356458
0.332282
0.307655
0.282527
0.256879
0.230704
0.204007
0.176788
0.149131
0.121121
0.0930241
0.0654476
0.0405476
0.532169
0.509888
0.487406
0.464698
0.441723
0.418428
0.394803
0.370796
0.346379
0.321514
0.296186
0.270371
0.244067
0.217257
0.189969
0.162239
0.134134
0.105778
0.0774725
0.0499996
0.548568
0.526003
0.503247
0.480257
0.457019
0.433472
0.409604
0.385373
0.36075
0.335705
0.310232
0.284294
0.257906
0.231066
0.203777
0.176086
0.148032
0.119729
0.0913442
0.0632639
0.56492
0.542104
0.519098
0.495879
0.472404
0.448651
0.424567
0.400152
0.375364
0.350175
0.324586
0.298579
0.27215
0.245305
0.218063
0.190461
0.162553
0.134413
0.106198
0.0781736
0.581221
0.558196
0.534983
0.511559
0.487892
0.463948
0.439696
0.415124
0.390202
0.364911
0.33923
0.313174
0.286726
0.259904
0.232728
0.205232
0.177473
0.149543
0.121563
0.0937679
0.597485
0.574274
0.550887
0.527292
0.503456
0.479356
0.454972
0.430271
0.405243
0.379858
0.354118
0.328027
0.301568
0.274778
0.24767
0.220279
0.192673
0.164923
0.137169
0.109633
0.613705
0.59034
0.566802
0.543069
0.519099
0.494878
0.470376
0.445581
0.420464
0.395015
0.369225
0.343109
0.31665
0.289888
0.262833
0.235534
0.208047
0.180456
0.152895
0.125548
0.629885
0.606398
0.582752
0.558894
0.534822
0.510504
0.485909
0.461037
0.435846
0.410349
0.384527
0.358384
0.331936
0.305191
0.27818
0.250943
0.223555
0.196079
0.168644
0.141419
0.646035
0.622449
0.598707
0.574777
0.550617
0.526226
0.501573
0.476627
0.451399
0.42586
0.400012
0.373851
0.3474
0.320669
0.293681
0.266492
0.239159
0.211752
0.184385
0.15722
0.244423
0.265881
0.290709
0.315931
0.343406
0.372717
0.403065
0.433625
0.463593
0.492193
0.22923
0.249775
0.272826
0.294756
0.318581
0.344995
0.373317
0.40254
0.431681
0.459879
0.206172
0.222351
0.244876
0.268439
0.292736
0.31861
0.346025
0.374352
0.402791
0.430598
0.182439
0.195779
0.216463
0.240974
0.2666
0.293065
0.320387
0.348298
0.376303
0.403817
0.159087
0.171515
0.190603
0.214856
0.241217
0.268404
0.296056
0.32394
0.351747
0.379108
0.136348
0.14888
0.16727
0.190976
0.217451
0.245071
0.27307
0.301082
0.328868
0.356142
0.11438
0.127382
0.145814
0.1692
0.195555
0.22331
0.251503
0.279647
0.307456
0.334695
0.0933299
0.106841
0.125737
0.149159
0.175402
0.203116
0.23137
0.259581
0.287401
0.31461
0.0733937
0.0872035
0.106774
0.130493
0.156753
0.1844
0.212611
0.2408
0.268604
0.295762
0.0549333
0.0685368
0.088822
0.113014
0.139401
0.166998
0.195119
0.223239
0.25096
0.278039
0.0389357
0.0510316
0.0718837
0.0966129
0.123198
0.150783
0.178784
0.206778
0.234392
0.261355
0.0283258
0.0353385
0.0561557
0.0813015
0.108073
0.135626
0.163503
0.191332
0.218788
0.245609
0.0284111
0.0237437
0.0421669
0.0672327
0.0940109
0.121466
0.149186
0.176817
0.204085
0.230737
0.0383475
0.0221239
0.0313139
0.0547584
0.0811055
0.1083
0.135773
0.163167
0.190212
0.216668
0.0523368
0.0312125
0.0266506
0.0446198
0.0695348
0.0961421
0.123232
0.15033
0.177104
0.203333
0.0675968
0.044421
0.0303739
0.0380802
0.0596722
0.0850837
0.111575
0.138264
0.164725
0.190691
0.0832063
0.0587144
0.0397214
0.0365303
0.0520421
0.0752966
0.100821
0.126953
0.153035
0.178705
0.0988326
0.0732287
0.0513947
0.0401061
0.0473256
0.0670004
0.09105
0.116413
0.142007
0.16733
0.114348
0.0876982
0.0638978
0.047331
0.046063
0.0605293
0.0823578
0.10667
0.131648
0.156549
0.129714
0.102012
0.0766388
0.0565731
0.0482115
0.0562186
0.0748949
0.0977497
0.121954
0.146352
)
;

boundaryField
{
    down
    {
        type            symmetryPlane;
    }
    right
    {
        type            calculated;
        value           nonuniform List<scalar> 
30
(
0.940305
0.924483
0.909976
0.896704
0.884553
0.87339
0.863094
0.853565
0.84471
0.83643
0.829206
0.82269
0.816424
0.810333
0.804347
0.798408
0.792446
0.786417
0.780266
0.773958
0.767456
0.760725
0.753737
0.746476
0.738904
0.731014
0.722769
0.714172
0.705197
0.695825
)
;
    }
    up
    {
        type            symmetryPlane;
    }
    left
    {
        type            calculated;
        value           uniform 0;
    }
    cylinder
    {
        type            symmetry;
    }
    defaultFaces
    {
        type            empty;
    }
}


// ************************************************************************* //
