/*--------------------------------*- C++ -*----------------------------------*\
| =========                 |                                                 |
| \\      /  F ield         | OpenFOAM: The Open Source CFD Toolbox           |
|  \\    /   O peration     | Version:  2206                                  |
|   \\  /    A nd           | Website:  www.openfoam.com                      |
|    \\/     M anipulation  |                                                 |
\*---------------------------------------------------------------------------*/
FoamFile
{
    version     2.0;
    format      ascii;
    arch        "LSB;label=32;scalar=64";
    class       volScalarField;
    location    "0";
    object      error_lap_Phi;
}
// * * * * * * * * * * * * * * * * * * * * * * * * * * * * * * * * * * * * * //

dimensions      [0 0 -1 0 0 0 0];

internalField   nonuniform List<scalar> 
2000
(
15.0079
0.0638645
0.100557
0.145528
0.178704
0.224261
0.241467
0.289695
0.30568
0.076209
13.4953
0.0308127
0.057387
0.0944963
0.137724
0.160912
0.200722
0.223899
0.255589
0.108916
11.8873
0.0170788
0.0055557
0.0412337
0.0817795
0.108652
0.145867
0.175904
0.197655
0.186033
10.1957
0.079435
0.0378947
0.00640631
0.0260643
0.0469278
0.0852281
0.107152
0.136043
0.180835
8.42598
0.114907
0.0881961
0.0589123
0.0288836
0.00873727
0.0161654
0.0474954
0.0703363
0.123167
6.5843
0.174182
0.145143
0.122558
0.0883534
0.073801
0.0389135
0.0142055
0.00871927
0.0468154
4.7068
0.21057
0.187102
0.181601
0.149092
0.126744
0.104929
0.0895672
0.0631459
0.0277053
2.75859
0.264217
0.250645
0.219689
0.219118
0.182654
0.178626
0.150418
0.131854
0.101819
0.774017
0.321005
0.289456
0.292332
0.268291
0.257786
0.228933
0.221842
0.203155
0.188731
1.21746
0.354295
0.352021
0.334515
0.32871
0.306463
0.299143
0.280135
0.264152
0.256257
17.0396
7.28674
6.70195
6.22389
5.78143
5.40853
5.0638
4.75993
4.47942
4.14361
24.1942
0.323078
0.391139
0.431671
0.475602
0.512191
0.54464
0.571691
0.593456
0.613126
23.5777
0.321662
0.35979
0.407071
0.451152
0.498582
0.520589
0.551597
0.577196
0.598304
22.8617
0.286254
0.346465
0.392159
0.436967
0.47624
0.498489
0.539329
0.554573
0.578531
22.0319
0.262739
0.327167
0.358086
0.407181
0.443481
0.488854
0.501087
0.536312
0.551522
21.1153
0.250089
0.293566
0.333911
0.387465
0.414079
0.446572
0.484328
0.506569
0.515016
20.0968
0.20287
0.257549
0.312777
0.343945
0.380522
0.421063
0.451792
0.481818
0.471511
18.9729
0.186311
0.23228
0.260246
0.310861
0.348359
0.383934
0.415009
0.436995
0.441254
17.7472
0.139582
0.184244
0.239915
0.276606
0.309259
0.342375
0.373572
0.406365
0.403471
16.4349
0.113984
0.151361
0.185675
0.222435
0.264413
0.29873
0.325495
0.362067
0.389522
4.00481
4.03056
3.96712
3.89939
3.82636
3.74824
3.66875
3.58524
3.5013
3.41432
3.32891
3.24177
3.15562
3.06979
2.9851
2.90117
2.81954
2.73785
2.65955
132.019
0.625768
0.640477
0.640239
0.636135
0.628623
0.618844
0.606947
0.592642
0.577199
0.561592
0.543151
0.525123
0.506106
0.487216
0.466021
0.446501
0.426534
0.405844
0.382554
141.235
0.610101
0.636961
0.631835
0.626479
0.619486
0.609497
0.597456
0.585238
0.571826
0.556698
0.541277
0.524568
0.50571
0.487113
0.468113
0.44878
0.427606
0.408807
0.378331
146.199
0.59095
0.636279
0.625586
0.617453
0.608536
0.598176
0.588534
0.578174
0.56754
0.555212
0.540739
0.525298
0.508474
0.490539
0.470819
0.450347
0.430715
0.409915
0.374739
149.052
0.562389
0.635551
0.613236
0.602987
0.592303
0.584797
0.580838
0.575156
0.568456
0.558644
0.545733
0.531023
0.513665
0.494425
0.474737
0.453943
0.432678
0.411493
0.373796
149.845
0.517538
0.621001
0.586363
0.575089
0.573323
0.577024
0.581633
0.583063
0.578398
0.569947
0.556836
0.539672
0.520303
0.500395
0.477639
0.456547
0.434521
0.412625
0.377228
148.741
0.425424
0.56747
0.528951
0.540201
0.565689
0.589016
0.60413
0.607278
0.602179
0.588903
0.571111
0.550582
0.52743
0.504841
0.481108
0.457914
0.434268
0.413346
0.385644
145.989
0.226624
0.420035
0.461223
0.541968
0.604903
0.638523
0.650315
0.644424
0.628718
0.606877
0.582885
0.558014
0.532414
0.506674
0.48211
0.457585
0.435103
0.411901
0.398033
141.883
0.159171
0.21479
0.51106
0.650406
0.699229
0.706759
0.692559
0.668424
0.64133
0.613406
0.586391
0.558609
0.531889
0.506644
0.480904
0.458166
0.434178
0.412556
0.411282
136.738
0.0492103
0.485942
0.537939
0.601134
0.624547
0.619376
0.610601
0.599151
0.585395
0.571249
0.553267
0.535416
0.516797
0.496401
0.476102
0.45397
0.433645
0.41184
0.431262
130.155
0.585969
0.520268
0.480896
0.48203
0.495046
0.508231
0.520248
0.527719
0.530935
0.530048
0.524626
0.516529
0.504033
0.488494
0.471801
0.452902
0.43237
0.411832
0.389879
128.845
0.404863
0.427134
0.469153
0.493533
0.518072
0.531767
0.541213
0.545687
0.544773
0.539772
0.530326
0.518223
0.503793
0.487087
0.468113
0.449459
0.428637
0.408991
0.387952
133.979
0.391506
0.430441
0.45469
0.489316
0.507601
0.523894
0.532566
0.536696
0.536318
0.53079
0.522596
0.511343
0.496856
0.481319
0.464004
0.445089
0.425661
0.405754
0.385782
138.142
0.375727
0.417433
0.457331
0.476753
0.495881
0.515171
0.523949
0.527426
0.527282
0.523087
0.515381
0.504462
0.491086
0.475741
0.458395
0.440646
0.422134
0.402329
0.383361
142.248
0.369515
0.412011
0.443555
0.474021
0.492958
0.505598
0.51513
0.519083
0.518635
0.515001
0.507259
0.496874
0.48434
0.468924
0.453445
0.435658
0.417579
0.399864
0.380398
146.295
0.353828
0.411751
0.43727
0.469141
0.478725
0.497809
0.506354
0.510243
0.509671
0.506307
0.498961
0.489311
0.47663
0.463511
0.44749
0.430848
0.413914
0.394794
0.377538
150.284
0.348888
0.399871
0.436061
0.452527
0.480217
0.487975
0.497147
0.50163
0.50136
0.497976
0.490741
0.481549
0.469645
0.456165
0.441495
0.425747
0.408274
0.392029
0.37385
154.215
0.345052
0.402661
0.427939
0.455272
0.462009
0.482077
0.488949
0.492059
0.492516
0.489303
0.483095
0.473125
0.462683
0.450011
0.434997
0.420125
0.403299
0.387412
0.370246
158.089
0.339063
0.398553
0.424846
0.443861
0.461904
0.471979
0.479851
0.483692
0.483392
0.479827
0.473645
0.466209
0.454325
0.442195
0.429205
0.413279
0.398763
0.382938
0.366135
161.907
0.34325
0.387515
0.417188
0.435029
0.45094
0.465576
0.471294
0.474624
0.474959
0.471717
0.46576
0.456754
0.447463
0.434648
0.421985
0.408335
0.392764
0.377494
0.362006
165.669
0.33435
0.391055
0.407335
0.435941
0.441552
0.457604
0.462805
0.466542
0.465318
0.463075
0.456587
0.448607
0.438766
0.427631
0.41527
0.401243
0.387473
0.372027
0.357799
169.376
0.341651
0.387607
0.409625
0.425048
0.438281
0.448542
0.455108
0.456823
0.457114
0.453203
0.448062
0.440834
0.431128
0.420208
0.407645
0.395133
0.381472
0.367584
0.352284
173.028
0.337531
0.38193
0.400109
0.419087
0.433944
0.440305
0.445576
0.44883
0.447732
0.44475
0.439009
0.431543
0.422419
0.412404
0.400569
0.387875
0.374542
0.361239
0.347871
176.626
0.342747
0.378785
0.397912
0.415655
0.426621
0.432178
0.438287
0.439942
0.43958
0.435583
0.430406
0.423389
0.414098
0.404241
0.393108
0.381167
0.369098
0.355645
0.342375
180.171
0.341971
0.375755
0.38866
0.41235
0.414396
0.426076
0.429896
0.431608
0.429804
0.427157
0.421558
0.41496
0.405713
0.396225
0.38505
0.374553
0.361574
0.349627
0.336847
183.663
0.351094
0.368035
0.393876
0.399591
0.410426
0.418653
0.422089
0.422404
0.421291
0.417818
0.412967
0.405323
0.398007
0.387663
0.378334
0.366864
0.355583
0.343448
0.331571
187.103
0.348213
0.374748
0.382439
0.396516
0.404421
0.411828
0.413676
0.414977
0.412863
0.409738
0.403457
0.397136
0.389091
0.380018
0.370354
0.359083
0.348999
0.336653
0.325852
190.492
0.349675
0.367163
0.378266
0.395938
0.394227
0.404409
0.406581
0.405988
0.404535
0.400545
0.395207
0.388748
0.380427
0.372359
0.362095
0.351954
0.341607
0.330703
0.319761
193.83
0.355053
0.366803
0.37417
0.383497
0.396834
0.395442
0.397943
0.398323
0.395368
0.391694
0.386561
0.379943
0.37204
0.363755
0.354301
0.345026
0.334869
0.323948
0.313298
197.118
0.642771
0.464623
0.295793
0.131049
0.018736
0.169375
0.306908
0.436888
0.55639
0.667638
0.769145
0.860491
0.943505
1.01627
1.08174
1.13787
1.18654
1.22699
1.26118
201.941
0.23881
0.155398
0.0827346
0.00841279
0.103197
0.18293
0.234344
0.248914
0.155453
0.319028
0.220862
0.153878
0.0915234
0.0365516
0.00173006
0.00596362
0.0133776
0.0170953
0.285919
0.881585
0.208663
0.149725
0.0910432
0.0512974
0.019001
0.0149551
0.0216456
0.129794
0.453291
0.768655
0.197012
0.134832
0.0769024
0.04001
0.0150243
0.0293259
0.0872341
0.240597
0.441791
0.594598
0.180529
0.128328
0.0789011
0.0250417
0.0149502
0.0643253
0.15506
0.284787
0.38109
0.482822
0.166327
0.112044
0.0604254
0.0191329
0.0444391
0.103231
0.190216
0.281715
0.352315
0.422442
0.158291
0.0968558
0.0460302
0.0104532
0.0625579
0.131685
0.211207
0.27187
0.319593
0.379125
0.133422
0.0847012
0.0315561
0.023236
0.0783365
0.156302
0.211627
0.275384
0.299361
0.363611
0.120277
0.0679993
0.014984
0.0453559
0.108899
0.158224
0.225304
0.2643
0.292324
0.35336
0.107558
0.0601884
0.00206886
0.0536021
0.109673
0.17711
0.219826
0.25568
0.295786
0.340186
0.0911432
0.0337571
0.0150545
0.0706334
0.124968
0.178168
0.222602
0.263592
0.289306
0.337832
0.0771345
0.0217987
0.0229002
0.0820867
0.131901
0.184041
0.224189
0.25894
0.294872
0.334431
0.0536038
0.00861514
0.0391205
0.0899844
0.140783
0.186075
0.227192
0.261985
0.297181
0.335379
0.0419963
0.00964475
0.0485659
0.109756
0.149578
0.193617
0.235565
0.271101
0.292102
0.330088
0.0288755
0.0156985
0.0704882
0.107295
0.155237
0.193048
0.239348
0.268227
0.301293
0.332777
0.00619945
0.0269084
0.0780929
0.122599
0.168831
0.211863
0.237374
0.27767
0.296486
0.329911
0.00650612
0.0531221
0.0924538
0.12942
0.170436
0.206418
0.25158
0.270029
0.30023
0.32914
0.0127572
0.0552642
0.102187
0.148266
0.181219
0.214042
0.247002
0.27939
0.308144
0.324502
0.0325536
0.0745898
0.111333
0.147614
0.184153
0.225743
0.249612
0.284504
0.302069
0.322878
3.31166
3.05568
2.77891
2.48854
2.18969
1.89073
1.60148
1.32395
1.06867
0.823005
0.484636
0.718787
0.718453
0.726918
0.726497
0.728352
0.731626
0.718717
0.709368
19.1487
0.567061
0.693608
0.697759
0.700007
0.704218
0.706853
0.687793
0.70443
0.691065
17.7408
0.670992
0.667688
0.666719
0.669243
0.674496
0.673884
0.678851
0.664734
0.661623
16.2091
0.668139
0.630711
0.631539
0.643451
0.640031
0.64112
0.641386
0.636976
0.630779
14.5594
0.643563
0.588177
0.604163
0.599174
0.607699
0.607881
0.612384
0.604733
0.606493
12.838
0.583425
0.553603
0.55382
0.559643
0.561222
0.572022
0.559102
0.576296
0.5576
11.01
0.514873
0.501744
0.50748
0.52177
0.522331
0.528077
0.53023
0.523484
0.542558
9.1376
0.444837
0.454457
0.460931
0.461123
0.480782
0.475137
0.48902
0.491223
0.494286
7.19482
0.389177
0.391103
0.400925
0.42152
0.415584
0.435084
0.435642
0.447348
0.439141
5.21254
0.312729
0.340416
0.348486
0.35679
0.371985
0.383191
0.382535
0.396885
0.417928
3.23189
2.58033
2.88511
3.15006
3.43972
3.78094
4.15768
4.6039
5.11462
5.71838
32.1062
0.828485
0.845225
0.852371
0.859021
0.860472
0.857584
0.856317
0.85209
0.82903
25.0513
0.810193
0.836173
0.847788
0.844595
0.853082
0.842885
0.853485
0.83542
0.842609
25.0924
0.791244
0.826793
0.839948
0.838491
0.838475
0.843809
0.843056
0.830104
0.823728
24.9435
0.767044
0.81565
0.820537
0.829864
0.838059
0.822682
0.829771
0.820134
0.809149
24.6063
0.734935
0.81096
0.807943
0.813604
0.81318
0.82152
0.816555
0.817948
0.802688
24.1012
0.704518
0.787661
0.798218
0.808254
0.807693
0.804316
0.804209
0.790522
0.794825
23.4292
0.660403
0.784316
0.777978
0.779762
0.797452
0.782306
0.784893
0.778733
0.768376
22.5808
0.652228
0.756201
0.768067
0.772714
0.76453
0.768726
0.773009
0.762282
0.763834
21.5832
0.676062
0.73837
0.751586
0.746576
0.75605
0.748897
0.750265
0.74073
0.729956
20.4479
3476.45
2.28937
2.29087
2.31232
2.32251
2.33345
2.35103
2.3615
2.37687
2.3911
2.40651
2.41527
2.43128
2.44059
2.46345
2.47442
2.48774
2.49976
2.51989
2.46661
3446.41
0.617425
0.544855
0.557612
0.577858
0.591886
0.611182
0.633855
0.644143
0.669084
0.685413
0.70287
0.711456
0.737964
0.755115
0.774462
0.794381
0.798696
0.822751
0.837977
3371.94
0.748063
0.532027
0.55384
0.571634
0.590993
0.60969
0.622429
0.648005
0.655382
0.677673
0.687722
0.71575
0.723822
0.74891
0.761485
0.780715
0.812352
0.821531
0.83992
3260.48
0.841782
0.53283
0.555542
0.563076
0.592956
0.607523
0.619549
0.640881
0.659546
0.668188
0.687752
0.700736
0.719777
0.729444
0.762499
0.77471
0.799997
0.829068
0.834145
3118.42
0.87326
0.528111
0.54595
0.56574
0.58525
0.601114
0.625709
0.633306
0.663365
0.662844
0.687404
0.699117
0.703463
0.725784
0.741265
0.769808
0.798822
0.832765
0.816428
2953.17
0.782834
0.522008
0.542
0.558973
0.583165
0.607636
0.622791
0.643257
0.654457
0.678691
0.694782
0.69539
0.713119
0.709517
0.726703
0.74121
0.774727
0.830973
0.786371
2772.27
0.59997
0.51825
0.540299
0.554476
0.578679
0.597337
0.628629
0.646391
0.674973
0.6853
0.70912
0.73108
0.722279
0.728715
0.719114
0.715408
0.726725
0.776469
0.722605
2582.88
0.359654
0.511241
0.529812
0.548133
0.576302
0.593866
0.624428
0.64845
0.674815
0.708489
0.731496
0.755791
0.777578
0.779404
0.757623
0.72679
0.657066
0.6391
0.553352
2391.26
0.12209
0.498911
0.522798
0.539957
0.569151
0.59492
0.614473
0.643536
0.678304
0.70473
0.751953
0.782883
0.824734
0.859511
0.875395
0.848025
0.749825
0.448096
0.193664
2190.9
0.213985
0.489064
0.510731
0.533561
0.549963
0.575368
0.59929
0.616361
0.638801
0.672601
0.686536
0.717665
0.744873
0.774055
0.797614
0.81371
0.780554
0.762166
0.517894
2094.83
0.47084
0.482765
0.502967
0.52679
0.539858
0.551514
0.573968
0.583052
0.594938
0.607541
0.617832
0.62213
0.636603
0.639662
0.651284
0.670403
0.703532
0.768828
0.894257
2109.26
0.454115
0.479784
0.488866
0.505199
0.528677
0.547218
0.567871
0.585702
0.602941
0.61462
0.630111
0.651586
0.662051
0.66842
0.684762
0.686836
0.688668
0.689908
0.730209
2108.05
0.446658
0.457286
0.484818
0.498057
0.518436
0.533876
0.54664
0.573337
0.580303
0.603255
0.618067
0.626913
0.639127
0.65684
0.658234
0.666932
0.673038
0.669031
0.685553
2106.34
0.429173
0.453458
0.465924
0.488019
0.505288
0.522402
0.539237
0.550863
0.566696
0.588952
0.591116
0.616046
0.625218
0.632735
0.638318
0.644059
0.649643
0.652342
0.661289
2104.17
0.425609
0.437215
0.458535
0.467944
0.489275
0.500881
0.51939
0.539875
0.555002
0.569384
0.58283
0.590341
0.608437
0.608148
0.622701
0.627874
0.625747
0.630355
0.632861
2101.54
0.414452
0.427732
0.44115
0.464193
0.475229
0.493293
0.506299
0.523682
0.535715
0.549406
0.557386
0.573805
0.579288
0.592729
0.604285
0.601705
0.603826
0.607938
0.598508
2098.47
0.400517
0.413078
0.428167
0.450489
0.456021
0.478157
0.490454
0.502348
0.51608
0.526694
0.548359
0.554546
0.568956
0.572198
0.573578
0.57999
0.581565
0.585173
0.577787
2094.99
0.386231
0.405256
0.419631
0.429276
0.448456
0.457923
0.471915
0.485511
0.505738
0.518071
0.522321
0.53264
0.541623
0.549026
0.561764
0.565201
0.561437
0.554958
0.552098
2091.09
0.376418
0.394738
0.401232
0.412571
0.435842
0.442226
0.46032
0.475632
0.480831
0.490107
0.510452
0.515339
0.528472
0.528072
0.535417
0.533481
0.543515
0.536511
0.52826
2086.8
0.361548
0.372001
0.394559
0.405216
0.413452
0.428736
0.441377
0.448849
0.465357
0.476375
0.484111
0.493144
0.503253
0.50941
0.513752
0.513617
0.513512
0.515545
0.496901
2082.15
0.351241
0.365809
0.375737
0.388126
0.398099
0.415124
0.419939
0.441125
0.447421
0.462588
0.464903
0.473305
0.485179
0.485928
0.492052
0.496106
0.488246
0.494521
0.475721
2077.15
0.340758
0.349895
0.359182
0.370934
0.38506
0.399063
0.410431
0.419026
0.427091
0.441634
0.448111
0.458281
0.464745
0.469659
0.470382
0.469046
0.470174
0.461536
0.455792
2071.81
0.327761
0.333887
0.349739
0.36088
0.369613
0.378225
0.388988
0.399371
0.411614
0.418367
0.426621
0.438565
0.437228
0.443913
0.451195
0.451642
0.449784
0.442972
0.429195
2066.16
0.314697
0.327413
0.330716
0.338883
0.359
0.359853
0.379604
0.389401
0.389086
0.407205
0.407674
0.414217
0.424224
0.427891
0.42019
0.429591
0.422343
0.417347
0.407077
2060.21
0.294442
0.30421
0.316532
0.333719
0.336533
0.351187
0.360806
0.362855
0.376321
0.386672
0.393719
0.394865
0.40425
0.404895
0.408528
0.40773
0.399869
0.396677
0.383837
2053.98
0.288591
0.300231
0.304853
0.316733
0.319021
0.335537
0.337437
0.353292
0.359015
0.361608
0.372846
0.378168
0.386929
0.37976
0.38754
0.378927
0.382407
0.373831
0.361395
2047.51
0.273271
0.282032
0.286167
0.30234
0.31131
0.315353
0.328696
0.334444
0.339613
0.355992
0.349887
0.359384
0.357945
0.364494
0.362055
0.362367
0.358034
0.353635
0.339322
2040.78
0.260503
0.268813
0.279671
0.281025
0.296701
0.302651
0.313099
0.313538
0.325342
0.329188
0.341637
0.338555
0.350841
0.339991
0.348859
0.336551
0.341146
0.324165
0.317438
2033.85
0.250341
0.251056
0.261491
0.274376
0.280032
0.287909
0.295476
0.304976
0.311457
0.312345
0.317023
0.325288
0.320184
0.325428
0.324058
0.325441
0.307847
0.309386
0.302542
2023.01
3.508
3.55667
3.60463
3.64932
3.68582
3.72113
3.75267
3.78022
3.80594
3.82
3.83646
3.84306
3.8514
3.84439
3.84316
3.82097
3.79896
3.77188
3.70537
0.522815
0.504723
0.607991
0.646377
0.614734
0.57297
0.510187
0.448911
0.374118
0.309752
1.24459
0.655869
0.387633
0.408139
0.454225
0.459376
0.443894
0.398889
0.351051
0.289599
1.09133
0.783227
0.48392
0.393983
0.402064
0.417908
0.403681
0.3844
0.332758
0.277916
0.887493
0.748079
0.569231
0.451399
0.405865
0.394903
0.383581
0.349807
0.315067
0.253284
0.750647
0.67501
0.595314
0.483414
0.42122
0.383594
0.367761
0.340864
0.297317
0.237017
0.665694
0.615374
0.573391
0.50543
0.436656
0.3869
0.352904
0.313707
0.271459
0.225481
0.605648
0.55755
0.542413
0.490266
0.436872
0.38478
0.335947
0.297605
0.253175
0.201648
0.556588
0.532615
0.506541
0.4745
0.429456
0.379589
0.334912
0.287211
0.241627
0.192777
0.521177
0.491572
0.477847
0.449917
0.409475
0.362554
0.309593
0.264807
0.216794
0.173758
0.493951
0.470127
0.451085
0.43145
0.385635
0.351066
0.302777
0.252413
0.200582
0.152431
0.460619
0.442992
0.428716
0.397741
0.370168
0.321688
0.276249
0.230416
0.189284
0.136607
0.442926
0.417876
0.396942
0.379231
0.346156
0.310771
0.26289
0.220449
0.165633
0.122375
0.411547
0.399173
0.380684
0.348112
0.325707
0.279245
0.242258
0.194085
0.152884
0.108
0.394349
0.373112
0.352209
0.335389
0.294504
0.264439
0.225978
0.176388
0.129751
0.0876665
0.367713
0.354002
0.327326
0.304845
0.278088
0.242642
0.203058
0.157999
0.116035
0.071202
0.35125
0.323586
0.306355
0.281271
0.254728
0.220106
0.179101
0.138695
0.101948
0.0606604
0.3226
0.309402
0.281834
0.262007
0.225011
0.199876
0.163773
0.11881
0.0876372
0.0343854
0.300282
0.283878
0.266324
0.234407
0.213892
0.173281
0.138238
0.106382
0.0555185
0.0239155
0.276371
0.262662
0.239652
0.221044
0.185315
0.160169
0.124878
0.0835963
0.0545576
0.00761766
3.75771
3.87822
3.95937
4.02115
4.03504
4.02065
3.96501
3.85619
3.72012
3.53225
)
;

boundaryField
{
    down
    {
        type            symmetryPlane;
    }
    right
    {
        type            calculated;
        value           nonuniform List<scalar> 
30
(
132.019
141.235
146.199
149.052
149.845
148.741
145.989
141.883
136.738
130.155
128.845
133.979
138.142
142.248
146.295
150.284
154.215
158.089
161.907
165.669
169.376
173.028
176.626
180.171
183.663
187.103
190.492
193.83
197.118
201.941
)
;
    }
    up
    {
        type            symmetryPlane;
    }
    left
    {
        type            calculated;
        value           nonuniform List<scalar> 
30
(
3476.45
3446.41
3371.94
3260.48
3118.42
2953.17
2772.27
2582.88
2391.26
2190.9
2094.83
2109.26
2108.05
2106.34
2104.17
2101.54
2098.47
2094.99
2091.09
2086.8
2082.15
2077.15
2071.81
2066.16
2060.21
2053.98
2047.51
2040.78
2033.85
2023.01
)
;
    }
    cylinder
    {
        type            symmetry;
    }
    defaultFaces
    {
        type            empty;
    }
}


// ************************************************************************* //
