/*--------------------------------*- C++ -*----------------------------------*\
| =========                 |                                                 |
| \\      /  F ield         | OpenFOAM: The Open Source CFD Toolbox           |
|  \\    /   O peration     | Version:  2206                                  |
|   \\  /    A nd           | Website:  www.openfoam.com                      |
|    \\/     M anipulation  |                                                 |
\*---------------------------------------------------------------------------*/
FoamFile
{
    version     2.0;
    format      ascii;
    arch        "LSB;label=32;scalar=64";
    class       volVectorField;
    location    "0";
    object      Phi_nn_grad;
}
// * * * * * * * * * * * * * * * * * * * * * * * * * * * * * * * * * * * * * //

dimensions      [0 1 -1 0 0 0 0];

internalField   nonuniform List<vector> 
2000
(
(-1.1014 0.860037 -3.00031e-17)
(-1.19477 0.662309 1.65733e-17)
(-1.14978 0.612884 -1.28259e-17)
(-1.11946 0.554434 -2.4825e-17)
(-1.09886 0.496131 -1.28873e-17)
(-1.08449 0.442323 1.18399e-17)
(-1.07467 0.39365 -1.67528e-17)
(-1.06863 0.349407 1.92025e-18)
(-1.06562 0.309298 1.14784e-17)
(-1.06221 0.269793 1.67149e-17)
(-1.23667 0.852042 5.40529e-18)
(-1.29721 0.672212 -1.32357e-17)
(-1.25401 0.618984 2.79176e-17)
(-1.22006 0.557737 6.15695e-18)
(-1.19244 0.497142 -1.50796e-17)
(-1.16946 0.441201 3.12024e-18)
(-1.15067 0.390548 6.35891e-18)
(-1.13594 0.34477 -1.20571e-17)
(-1.1248 0.303858 7.80935e-18)
(-1.11481 0.264149 2.45358e-17)
(-1.36913 0.826097 3.56563e-17)
(-1.39548 0.670345 -7.06737e-17)
(-1.35253 0.609687 2.4544e-17)
(-1.31435 0.543003 3.0679e-17)
(-1.2797 0.478809 3.1034e-18)
(-1.24845 0.420827 -2.71955e-17)
(-1.22123 0.369494 3.02021e-18)
(-1.19847 0.324297 -2.13344e-17)
(-1.17997 0.285017 -1.01676e-17)
(-1.16407 0.247719 7.04139e-18)
(-1.49355 0.780115 -1.7145e-17)
(-1.4862 0.65335 1.44723e-17)
(-1.44125 0.582465 -2.29523e-17)
(-1.39787 0.508836 -1.01931e-17)
(-1.35613 0.441021 3.69776e-18)
(-1.31716 0.382313 -6.85199e-18)
(-1.28243 0.332556 1.49251e-17)
(-1.25279 0.290598 2.02251e-18)
(-1.22824 0.255496 -2.06302e-17)
(-1.20764 0.222961 -5.22082e-17)
(-1.60501 0.713619 3.81972e-17)
(-1.56626 0.619461 2.44119e-17)
(-1.5168 0.537149 3.21165e-18)
(-1.46732 0.456648 1.16599e-17)
(-1.41875 0.386527 -3.79546e-18)
(-1.37305 0.329342 5.08966e-18)
(-1.3322 0.283856 -2.24561e-17)
(-1.2973 0.24775 -1.54363e-17)
(-1.26836 0.218952 6.56207e-18)
(-1.2445 0.192816 -6.87197e-18)
(-1.69974 0.627917 -8.6104e-19)
(-1.63351 0.568908 -1.48197e-17)
(-1.57728 0.475933 -1.86384e-18)
(-1.52122 0.390162 9.87463e-18)
(-1.46658 0.319972 4.41177e-18)
(-1.41559 0.266872 5.2213e-18)
(-1.37038 0.228144 -4.93962e-19)
(-1.33202 0.199913 -1.68225e-17)
(-1.30039 0.178768 -1.13631e-17)
(-1.27465 0.159786 1.18669e-17)
(-1.77579 0.525818 -2.00745e-19)
(-1.68732 0.503698 7.60351e-18)
(-1.62264 0.402639 3.84659e-19)
(-1.56003 0.31425 5.16813e-20)
(-1.50045 0.246501 -1.08438e-17)
(-1.44585 0.199718 1.81247e-19)
(-1.39808 0.169517 2.47198e-17)
(-1.35794 0.150301 4.88027e-17)
(-1.32506 0.137303 1.47813e-17)
(-1.29847 0.125474 3.09115e-18)
(-1.83332 0.41096 -2.06088e-17)
(-1.72868 0.426846 -1.28175e-18)
(-1.65453 0.321537 -1.10755e-19)
(-1.58572 0.233606 1.14466e-17)
(-1.52241 0.170517 1.07021e-17)
(-1.46576 0.131542 4.75206e-18)
(-1.41697 0.110714 -1.38855e-17)
(-1.37635 0.100765 9.62432e-18)
(-1.3432 0.0957233 7.94675e-18)
(-1.31637 0.0905851 2.37334e-17)
(-1.87422 0.286967 -7.23117e-17)
(-1.75988 0.341368 0)
(-1.67573 0.236186 -2.0333e-17)
(-1.60106 0.151721 -3.41914e-17)
(-1.53494 0.0949587 -6.49258e-19)
(-1.47738 0.0644656 1.73538e-18)
(-1.42865 0.0530134 -6.90709e-18)
(-1.38838 0.0519155 -2.84513e-17)
(-1.35548 0.0542287 -5.25069e-18)
(-1.32861 0.0551682 -2.76192e-17)
(-1.90132 0.156748 4.40131e-17)
(-1.78361 0.249435 1.62272e-19)
(-1.68917 0.148667 -6.56052e-19)
(-1.6087 0.070405 3.11296e-20)
(-1.54021 0.0211589 -2.01129e-17)
(-1.4824 -0.000784879 -7.71998e-18)
(-1.43434 -0.00343333 6.13764e-18)
(-1.39483 0.0035035 -1.67529e-17)
(-1.36232 0.0124036 7.39044e-18)
(-1.33528 0.0188568 5.6614e-18)
(-0.139988 0.186677 -1.66009e-18)
(-0.305997 0.160311 7.67121e-18)
(-0.246614 0.137586 2.67367e-18)
(-0.27845 0.113346 -5.02425e-19)
(-0.366177 0.0905246 -3.03234e-18)
(-0.47589 0.0709172 -3.79156e-18)
(-0.582398 0.0552125 1.20835e-17)
(-0.671674 0.0432141 5.67665e-19)
(-0.739362 0.0341984 -1.25167e-17)
(-0.787422 0.027506 1.01625e-17)
(-0.196506 0.583678 -9.53384e-18)
(-0.370174 0.4918 -6.93359e-20)
(-0.318716 0.422026 -8.10563e-18)
(-0.350204 0.347203 2.15163e-18)
(-0.431545 0.276921 3.31676e-18)
(-0.531601 0.217094 -1.85094e-18)
(-0.627808 0.16993 2.9914e-20)
(-0.708121 0.134662 4.75553e-18)
(-0.769169 0.108804 3.32219e-17)
(-0.812195 0.0904418 -1.40479e-17)
(-0.260744 0.628722 -1.41698e-17)
(-0.444043 0.511938 8.57452e-18)
(-0.395701 0.440688 3.189e-18)
(-0.422204 0.363097 -1.03709e-17)
(-0.493236 0.290207 7.83006e-18)
(-0.580805 0.228906 -3.93615e-18)
(-0.665125 0.181692 7.64166e-19)
(-0.736032 0.14753 3.66102e-20)
(-0.790862 0.123455 -1.19201e-18)
(-0.830539 0.107699 1.26711e-17)
(-0.334263 0.670017 1.81505e-17)
(-0.52426 0.529501 -1.22712e-17)
(-0.476473 0.458477 8.93175e-18)
(-0.495296 0.379984 -6.57033e-18)
(-0.553635 0.306134 2.32987e-18)
(-0.626952 0.244459 2.49014e-17)
(-0.698347 0.197551 -3.62807e-18)
(-0.759449 0.164117 -3.59378e-18)
(-0.80811 0.140892 2.71233e-17)
(-0.844868 0.126477 2.19055e-17)
(-0.416801 0.708557 1.24633e-17)
(-0.609454 0.546016 1.16096e-17)
(-0.560798 0.476923 -1.53882e-18)
(-0.570489 0.399451 3.29781e-18)
(-0.614928 0.326353 -1.73081e-17)
(-0.673162 0.265422 2.50171e-18)
(-0.731164 0.219141 1.84217e-17)
(-0.782215 0.185974 -1.45175e-17)
(-0.824536 0.162548 -1.08384e-17)
(-0.858191 0.148069 7.66649e-18)
(-0.508485 0.744871 -4.43956e-17)
(-0.698826 0.562945 -3.65192e-18)
(-0.648896 0.497303 2.58048e-18)
(-0.649147 0.422634 1.35712e-17)
(-0.67957 0.351864 1.05892e-17)
(-0.722782 0.292666 -1.42104e-18)
(-0.767492 0.247219 3.5797e-18)
(-0.80845 0.21378 -2.38117e-19)
(-0.844132 0.189076 1.23653e-18)
(-0.873993 0.173181 -1.6112e-17)
(-0.609599 0.778859 -1.09956e-17)
(-0.79198 0.581405 -6.2274e-18)
(-0.741191 0.520306 -2.36221e-17)
(-0.732635 0.449796 -6.59544e-18)
(-0.74985 0.382516 8.11576e-18)
(-0.77886 0.325665 2.44009e-18)
(-0.81088 0.280985 9.74649e-18)
(-0.841913 0.246617 -2.48867e-17)
(-0.870598 0.219604 7.75891e-19)
(-0.89562 0.201176 4.40928e-17)
(-0.720284 0.809619 9.1985e-18)
(-0.888701 0.601816 -5.46462e-18)
(-0.837999 0.54565 1.69248e-19)
(-0.821924 0.479906 -2.09671e-17)
(-0.827379 0.416544 4.87286e-18)
(-0.843522 0.362034 1.14284e-17)
(-0.863776 0.317649 4.09809e-18)
(-0.88518 0.281569 -4.40438e-18)
(-0.906479 0.251375 -3.0692e-17)
(-0.925442 0.229718 1.55437e-17)
(-0.84017 0.835328 2.6488e-17)
(-0.988674 0.623562 1.83078e-17)
(-0.939183 0.571744 9.86678e-18)
(-0.917145 0.510339 7.3966e-18)
(-0.912542 0.45036 -8.45041e-18)
(-0.917325 0.397453 1.39682e-17)
(-0.926811 0.352506 1.65922e-17)
(-0.93888 0.313938 -4.38889e-18)
(-0.952383 0.280047 9.45099e-18)
(-0.964106 0.255067 -1.00103e-17)
(-0.968013 0.853264 3.2826e-17)
(-1.09117 0.644765 3.29548e-17)
(-1.04379 0.595562 3.03539e-18)
(-1.01718 0.536914 -1.47996e-17)
(-1.00406 0.478826 -5.46367e-18)
(-0.998812 0.426197 -1.25862e-17)
(-0.998357 0.379706 6.39948e-18)
(-1.0013 0.338186 8.79077e-18)
(-1.00664 0.300708 3.38554e-18)
(-1.01022 0.273043 -1.41866e-19)
(-0.819097 0.0218696 -5.67607e-18)
(-0.838525 0.0168376 -1.23074e-17)
(-0.849026 0.012722 -5.94508e-18)
(-0.854167 0.00925086 -2.57103e-17)
(-0.856721 0.00633343 3.79656e-17)
(-0.859103 0.00386181 7.1018e-18)
(-0.863089 0.00172515 -3.82501e-17)
(-0.869598 -0.000164637 1.27922e-17)
(-0.87866 -0.00185719 -1.91203e-19)
(-0.889579 -0.00336476 -1.85596e-19)
(-0.901219 -0.00467567 6.60882e-18)
(-0.912306 -0.00577203 -1.38491e-17)
(-0.921685 -0.00664426 6.44407e-18)
(-0.928475 -0.00729871 1.16435e-20)
(-0.932134 -0.00775839 -7.06283e-18)
(-0.93245 -0.00805876 2.76098e-17)
(-0.929476 -0.00824148 4.83661e-17)
(-0.923455 -0.00834837 -2.02624e-17)
(-0.914743 -0.00841688 -3.37729e-17)
(-0.947588 -0.00857827 2.77583e-17)
(-0.839985 0.0745149 -4.65097e-17)
(-0.85687 0.0600853 -1.30741e-17)
(-0.865133 0.0482742 4.07692e-18)
(-0.86808 0.038092 -8.80073e-19)
(-0.868582 0.0292495 3.95283e-18)
(-0.869194 0.0214577 -1.79222e-17)
(-0.871746 0.0144595 -7.14959e-18)
(-0.877114 0.00808521 3.19162e-17)
(-0.88522 0.00227479 -7.16617e-19)
(-0.895267 -0.00294117 -6.25471e-19)
(-0.906051 -0.00748824 5.29166e-18)
(-0.916285 -0.0112982 -6.74557e-18)
(-0.924836 -0.0143451 -1.3681e-17)
(-0.930865 -0.0166602 2.87712e-17)
(-0.93387 -0.018327 7.66757e-18)
(-0.933664 -0.0194656 -1.40766e-17)
(-0.930306 -0.0202119 -2.80569e-17)
(-0.924029 -0.0206992 -4.78686e-19)
(-0.915168 -0.0210459 2.71909e-17)
(-0.8999 -0.021253 -6.94548e-18)
(-0.856456 0.0932389 -1.70447e-17)
(-0.872508 0.079408 1.35014e-17)
(-0.879924 0.0683261 2.23951e-18)
(-0.88187 0.0584383 -3.4305e-18)
(-0.881199 0.049379 -4.1203e-19)
(-0.880557 0.0408853 -3.89243e-17)
(-0.881862 0.0328102 1.1307e-17)
(-0.886028 0.0251363 3.29972e-17)
(-0.892983 0.0179543 -1.00132e-19)
(-0.901918 0.0114135 2.03807e-17)
(-0.911632 0.00566255 -1.89337e-17)
(-0.920855 0.000802921 -4.69546e-17)
(-0.92848 -0.00313654 -3.42037e-17)
(-0.933697 -0.00620126 3.39765e-17)
(-0.936022 -0.00849606 8.24013e-17)
(-0.935272 -0.0101621 -2.04539e-17)
(-0.931501 -0.0113535 -5.42159e-17)
(-0.924923 -0.0122182 1.37216e-17)
(-0.915849 -0.012886 2.0137e-17)
(-0.868105 -0.0127384 -6.44433e-18)
(-0.869422 0.112213 -4.18517e-17)
(-0.885569 0.0978733 -5.25967e-17)
(-0.893214 0.0869129 -1.52941e-17)
(-0.895185 0.0770939 1.41416e-17)
(-0.894161 0.0678675 3.78887e-17)
(-0.892805 0.0588903 -4.60256e-18)
(-0.893131 0.0500337 -7.16836e-18)
(-0.896159 0.0413618 9.41293e-18)
(-0.901904 0.0330701 -1.04715e-18)
(-0.909626 0.0254026 -1.78536e-18)
(-0.918173 0.0185768 2.041e-18)
(-0.926312 0.0127333 8.77823e-20)
(-0.932966 0.00791641 -4.92694e-18)
(-0.937339 0.00408055 2.52259e-17)
(-0.938953 0.00111272 8.2234e-18)
(-0.93762 -0.00113921 -1.79611e-17)
(-0.933376 -0.00284021 -6.77333e-18)
(-0.926417 -0.00414806 -2.48255e-19)
(-0.917031 -0.00520076 6.71278e-18)
(-0.851588 -0.00476947 2.07189e-20)
(-0.881051 0.132457 1.93322e-17)
(-0.897323 0.116117 -7.50364e-18)
(-0.905524 0.104325 2.51309e-17)
(-0.908053 0.0940587 1.76758e-17)
(-0.907212 0.0844934 -3.52746e-17)
(-0.905556 0.0750955 -2.77304e-17)
(-0.905153 0.0656497 -2.51892e-18)
(-0.907154 0.056219 3.30496e-17)
(-0.911713 0.0470467 -2.24526e-17)
(-0.918207 0.038441 -2.2874e-17)
(-0.925567 0.0306768 3.58169e-17)
(-0.932614 0.0239361 -3.83696e-17)
(-0.938295 0.0182871 -1.57289e-17)
(-0.941824 0.0136944 3.1245e-17)
(-0.942715 0.0100466 -6.42967e-18)
(-0.940767 0.00718848 6.96273e-18)
(-0.935995 0.00494975 1.92622e-17)
(-0.928576 0.00316685 1.26167e-19)
(-0.918778 0.00169606 -1.2244e-17)
(-0.848673 0.00209353 -1.17967e-17)
(-0.894078 0.154678 -8.47299e-18)
(-0.90956 0.134827 -2.03875e-17)
(-0.9178 0.121111 2.22402e-17)
(-0.920819 0.109688 8.31539e-18)
(-0.920326 0.0994163 -2.55678e-17)
(-0.91859 0.0894891 1.54401e-17)
(-0.917643 0.0795109 4.48296e-18)
(-0.918735 0.0694596 -2.61873e-17)
(-0.922177 0.0595658 3.27621e-17)
(-0.927484 0.0501657 3.746e-17)
(-0.933693 0.0415762 -1.97829e-17)
(-0.939682 0.0340177 -6.38831e-18)
(-0.944423 0.0275866 -3.56877e-18)
(-0.947129 0.0222647 6.43648e-18)
(-0.947302 0.0179488 -1.21831e-17)
(-0.944717 0.0144856 -2.35991e-17)
(-0.93937 0.0117038 1.68271e-17)
(-0.931417 0.00943656 5.18838e-18)
(-0.921111 0.00753651 7.82927e-19)
(-0.856902 0.00749744 5.6366e-18)
(-0.911349 0.17859 1.72793e-17)
(-0.924314 0.154213 -1.97151e-19)
(-0.931292 0.137676 -3.03832e-17)
(-0.934123 0.124396 -2.86822e-17)
(-0.933726 0.112963 5.28276e-19)
(-0.931891 0.102275 3.96253e-17)
(-0.930468 0.0916999 -9.25864e-18)
(-0.930736 0.0810616 -4.50219e-18)
(-0.933133 0.0705228 -2.9122e-17)
(-0.93732 0.0604113 8.47072e-18)
(-0.942439 0.0510671 3.33712e-17)
(-0.947429 0.0427437 -1.06355e-17)
(-0.951281 0.0355667 -1.59582e-17)
(-0.953201 0.0295387 -3.15761e-19)
(-0.95267 0.0245687 -7.77374e-18)
(-0.949437 0.0205088 1.03979e-17)
(-0.943476 0.0171885 3.3995e-17)
(-0.934922 0.0144397 -2.15003e-17)
(-0.924016 0.0121124 -2.24424e-17)
(-0.873332 0.0112974 -2.58832e-19)
(-0.935131 0.202565 2.15786e-17)
(-0.943382 0.173653 -9.76115e-18)
(-0.947277 0.153952 -2.86974e-17)
(-0.948747 0.138378 1.28376e-17)
(-0.947807 0.125403 7.92834e-18)
(-0.945597 0.113701 1.81231e-17)
(-0.943624 0.102396 3.31544e-17)
(-0.943086 0.0911284 -1.31369e-17)
(-0.944492 0.0799515 9.8581e-18)
(-0.947621 0.0691541 -6.38563e-18)
(-0.951716 0.0590817 -2.21861e-17)
(-0.955772 0.0500134 3.43245e-17)
(-0.958794 0.0421037 1.08267e-17)
(-0.959972 0.0353782 -4.1538e-17)
(-0.958758 0.0297601 1.3913e-18)
(-0.954872 0.0251087 9.30007e-18)
(-0.948262 0.0212555 -1.84368e-17)
(-0.939046 0.0180315 -1.02866e-17)
(-0.927453 0.0152843 3.98293e-17)
(-0.894848 0.0135115 2.9672e-17)
(-0.966419 0.223816 -3.61213e-18)
(-0.967818 0.191678 6.06448e-18)
(-0.966713 0.169278 -1.06611e-17)
(-0.965394 0.151448 -5.40492e-17)
(-0.963004 0.136793 -5.19464e-18)
(-0.959927 0.123911 1.70356e-17)
(-0.957189 0.111754 1.14459e-17)
(-0.955783 0.0997882 3.56231e-17)
(-0.95621 0.0879435 -1.29675e-17)
(-0.958325 0.0764491 -2.6854e-17)
(-0.961455 0.0656426 9.66089e-18)
(-0.964639 0.0558231 -1.11245e-17)
(-0.966887 0.0471733 -3.40878e-18)
(-0.967367 0.0397428 2.69078e-18)
(-0.965494 0.0334712 4.38068e-18)
(-0.960953 0.028226 -5.64712e-18)
(-0.953664 0.0238411 1.2362e-17)
(-0.943728 0.0201464 2.96543e-17)
(-0.931366 0.0169872 9.68892e-18)
(-0.918446 0.014258 -4.11131e-18)
(-1.00123 0.232984 -2.50515e-17)
(-0.995662 0.202809 -1.17461e-17)
(-0.988399 0.179902 2.49706e-17)
(-0.983225 0.161014 1.46777e-17)
(-0.978604 0.145247 -2.34775e-17)
(-0.974209 0.131421 -1.98662e-17)
(-0.970521 0.118513 -2.3804e-17)
(-0.968237 0.105917 1.47938e-18)
(-0.967767 0.0934753 2.36745e-17)
(-0.968993 0.0813665 -5.58409e-18)
(-0.971293 0.0699164 -3.46235e-18)
(-0.973737 0.0594408 -2.08484e-17)
(-0.975329 0.0501491 2.51275e-17)
(-0.975204 0.0421151 3.15207e-17)
(-0.972736 0.0352931 -3.19721e-17)
(-0.96757 0.0295565 -3.86841e-17)
(-0.959595 0.0247382 -1.06489e-17)
(-0.948895 0.0206633 1.41455e-17)
(-0.935688 0.0171709 1.01996e-17)
(-0.941461 0.0137901 4.52409e-18)
(-1.04784 0.225775 0)
(-1.02603 0.199952 -5.92047e-18)
(-1.01294 0.179597 1.26864e-17)
(-1.0033 0.162162 -3.85823e-18)
(-0.995669 0.147054 -1.11118e-17)
(-0.989459 0.133385 2.14548e-18)
(-0.984716 0.120369 0)
(-0.981717 0.107556 -5.14572e-18)
(-0.980576 0.0948783 0)
(-0.98103 0.0825426 0)
(-0.98243 0.0708737 0)
(-0.98389 0.0601742 0)
(-0.984472 0.0506416 -3.53676e-18)
(-0.983363 0.0423447 4.54008e-18)
(-0.979965 0.0352408 2.4652e-18)
(-0.973932 0.029212 0)
(-0.96515 0.024103 -1.52424e-18)
(-0.95369 0.0197515 -5.75317e-19)
(-0.939757 0.0160079 -1.70041e-19)
(-0.96136 0.0125497 0)
(-1.06679 0.212449 -1.14042e-17)
(-1.04612 0.191704 0)
(-1.03103 0.174665 1.86279e-17)
(-1.01933 0.159241 -3.1993e-31)
(-1.01014 0.145157 -1.82505e-17)
(-1.00303 0.131884 0)
(-0.997899 0.118944 0)
(-0.994714 0.106102 0)
(-0.993298 0.093398 0)
(-0.993213 0.0810688 0)
(-0.993771 0.0694241 0)
(-0.994148 0.0587375 0)
(-0.993523 0.0491826 0)
(-0.991195 0.040817 0)
(-0.98666 0.0335999 0)
(-0.979624 0.0274244 0)
(-0.969996 0.0221505 0)
(-0.957843 0.0176321 0)
(-0.943353 0.0137339 0)
(-0.978202 0.0103404 0)
(-1.08105 0.191872 -8.60422e-18)
(-1.06121 0.176633 3.19129e-18)
(-1.04544 0.16345 2.18415e-17)
(-1.03295 0.150607 2.72107e-18)
(-1.02319 0.138081 -1.59916e-17)
(-1.01582 0.125684 2.27077e-18)
(-1.01062 0.113264 2.04638e-18)
(-1.00735 0.100816 1.82148e-18)
(-1.00567 0.0884978 0)
(-1.00504 0.0765728 1.38346e-18)
(-1.00478 0.0653265 1.18028e-18)
(-1.00414 0.0549937 9.93588e-19)
(-1.00239 0.0457172 8.25987e-19)
(-0.998934 0.037542 6.78283e-19)
(-0.99334 0.0304309 5.49804e-19)
(-0.985361 0.0242919 4.38889e-19)
(-0.974921 0.0190056 0)
(-0.962088 0.0144467 2.61014e-19)
(-0.947035 0.0104984 1.89678e-19)
(-0.991194 0.00705965 1.27549e-19)
(-1.09096 0.172138 -8.16982e-18)
(-1.07246 0.160878 -4.13429e-19)
(-1.05705 0.150551 1.90981e-17)
(-1.0447 0.139751 -3.8278e-31)
(-1.03506 0.128611 -1.87008e-17)
(-1.02785 0.117166 2.09237e-32)
(-1.02277 0.105469 -1.37569e-31)
(-1.01948 0.0936576 1.84193e-17)
(-1.01754 0.0819538 -3.97621e-31)
(-1.01638 0.0706269 -1.83633e-17)
(-1.01535 0.059936 7.0898e-32)
(-1.01376 0.0500836 1.0384e-31)
(-1.01097 0.0411908 3.56735e-31)
(-1.00648 0.033296 6.23581e-32)
(-0.99991 0.0263699 2.28106e-31)
(-0.99105 0.0203375 1.79056e-17)
(-0.979841 0.0151005 -1.35403e-31)
(-0.966351 0.0105548 -1.74594e-17)
(-0.950741 0.00660203 1.23008e-31)
(-0.99932 0.00315612 1.05148e-31)
(-1.09798 0.152988 1.43606e-17)
(-1.08104 0.144474 -2.61026e-18)
(-1.06657 0.136213 1.68091e-17)
(-1.05489 0.12705 -2.29545e-18)
(-1.04578 0.11719 -2.10117e-17)
(-1.03896 0.106787 -1.92935e-18)
(-1.03413 0.0960048 -1.73455e-18)
(-1.03087 0.0850497 -1.53662e-18)
(-1.0287 0.0741675 0)
(-1.02706 0.0636153 -1.14936e-18)
(-1.02533 0.0536242 -9.68845e-19)
(-1.02289 0.0443701 -8.01648e-19)
(-1.01918 0.0359584 -6.49673e-19)
(-1.01376 0.0284265 -5.13591e-19)
(-1.0063 0.0217558 -3.93068e-19)
(-0.99663 0.0158898 -2.87085e-19)
(-0.984704 0.010752 0)
(-0.970587 0.00625989 -1.13099e-19)
(-0.954434 0.00233414 -4.21717e-20)
(-1.00191 -0.00109588 1.97997e-20)
(-1.1031 0.134178 5.84017e-18)
(-1.08776 0.127586 0)
(-1.07448 0.120876 1.94129e-17)
(-1.06372 0.113097 -7.34137e-32)
(-1.05532 0.104472 -1.90669e-17)
(-1.04903 0.0952015 0)
(-1.0445 0.0854923 0)
(-1.04132 0.0755696 0)
(-1.03898 0.0656728 0)
(-1.03693 0.0560354 0)
(-1.0346 0.0468598 0)
(-1.03142 0.0382987 0)
(-1.02692 0.0304467 0)
(-1.02068 0.0233429 0)
(-1.01245 0.0169814 0)
(-1.00205 0.0113253 0)
(-0.989471 0.00631993 0)
(-0.974768 0.00190464 0)
(-0.958096 -0.00198038 0)
(-0.998684 -0.00538958 0)
(-1.10695 0.115837 0)
(-1.09311 0.110668 0)
(-1.08106 0.105209 1.95318e-17)
(-1.07129 0.0986703 -3.50791e-31)
(-1.06367 0.0912646 -1.92177e-17)
(-1.05794 0.0831943 0)
(-1.05376 0.0746652 0)
(-1.05069 0.0658912 0)
(-1.04824 0.0570877 0)
(-1.04587 0.0484569 0)
(-1.04306 0.0401724 0)
(-1.0393 0.0323662 0)
(-1.03413 0.0251245 0)
(-1.02722 0.01849 0)
(-1.01832 0.0124699 0)
(-1.00729 0.00704649 0)
(-0.994124 0.00218703 0)
(-0.978887 -0.00214763 0)
(-0.961728 -0.00599751 0)
(-0.989808 -0.00940022 0)
(-1.10986 0.0984277 -1.6468e-17)
(-1.09736 0.0943895 0)
(-1.08648 0.0900092 1.96297e-17)
(-1.07766 0.0846251 1.52895e-18)
(-1.0708 0.0784214 -1.93465e-17)
(-1.06563 0.0715786 0)
(-1.06181 0.0642792 0)
(-1.05889 0.0567078 0)
(-1.05641 0.049046 0)
(-1.05384 0.0414621 0)
(-1.05069 0.0341008 0)
(-1.04647 0.0270751 0)
(-1.04079 0.0204638 0)
(-1.03334 0.0143134 0)
(-1.02389 0.00864354 0)
(-1.01234 0.00345452 0)
(-0.998665 -0.00126552 0)
(-0.982953 -0.00553474 0)
(-0.965349 -0.00937359 0)
(-0.975885 -0.0128024 0)
(-1.11202 0.0825349 0)
(-1.10067 0.0794546 0)
(-1.09082 0.0760474 0)
(-1.08288 0.0717523 -6.19023e-32)
(-1.07672 0.0667175 0)
(-1.07208 0.0610898 0)
(-1.06863 0.0550171 0)
(-1.06592 0.0486472 0)
(-1.06348 0.0421242 0)
(-1.06082 0.0355819 0)
(-1.05745 0.029137 0)
(-1.05294 0.0228846 0)
(-1.0469 0.0168964 0)
(-1.03904 0.0112214 0)
(-1.02917 0.00589004 0)
(-1.0172 0.000918954 0)
(-1.00311 -0.00368472 0)
(-0.986995 -0.00791938 0)
(-0.968996 -0.0117864 0)
(-0.957954 -0.0152888 0)
(-1.11352 0.0686576 0)
(-1.10313 0.0664324 0)
(-1.09418 0.063929 1.97688e-17)
(-1.08699 0.060665 -1.09605e-18)
(-1.08146 0.0567505 -1.95391e-17)
(-1.07733 0.052295 0)
(-1.07425 0.0474082 0)
(-1.07179 0.0421995 0)
(-1.06948 0.0367756 0)
(-1.06683 0.031237 0)
(-1.06338 0.0256742 0)
(-1.05871 0.020165 0)
(-1.05246 0.014773 0)
(-1.04435 0.00954861 0)
(-1.03419 0.00453062 0)
(-1.02191 -0.000250769 0)
(-1.0075 -0.0047716 0)
(-0.991055 -0.00901217 0)
(-0.972718 -0.0129558 0)
(-0.93745 -0.0165885 0)
(-1.1144 0.0570852 0)
(-1.10481 0.0556589 0)
(-1.09659 0.0540134 1.98125e-17)
(-1.09006 0.0517287 -1.37071e-31)
(-1.08509 0.048879 -1.96046e-17)
(-1.08143 0.0455373 0)
(-1.07872 0.0417761 0)
(-1.07655 0.037668 0)
(-1.07444 0.0332849 0)
(-1.07192 0.0286963 0)
(-1.06852 0.0239684 0)
(-1.06384 0.0191619 0)
(-1.05751 0.0143318 0)
(-1.04928 0.00952736 0)
(-1.03897 0.0047933 0)
(-1.0265 0.000170445 0)
(-1.01188 -0.00430315 0)
(-0.995179 -0.00859178 0)
(-0.976572 -0.0126621 0)
(-0.91614 -0.0164835 0)
(-1.11467 0.0478644 0)
(-1.10571 0.0472113 0)
(-1.09811 0.0463947 1.98399e-17)
(-1.09213 0.0450462 -1.35755e-31)
(-1.08765 0.0432081 -1.9651e-17)
(-1.08443 0.0409201 0)
(-1.08212 0.0382212 0)
(-1.08028 0.0351505 0)
(-1.07845 0.0317485 0)
(-1.07615 0.0280566 0)
(-1.07292 0.0241181 0)
(-1.06835 0.019977 0)
(-1.06209 0.0156785 0)
(-1.05388 0.0112688 0)
(-1.04355 0.00679541 0)
(-1.03101 0.00230663 0)
(-1.01627 -0.00214828 0)
(-0.999414 -0.00651998 0)
(-0.98061 -0.0107601 0)
(-0.896042 -0.0148226 0)
(-1.11431 0.0408311 -2.00741e-17)
(-1.10586 0.0409414 0)
(-1.09876 0.0409352 1.98516e-17)
(-1.09325 0.0404882 -1.35342e-31)
(-1.08921 0.0396158 -1.96792e-17)
(-1.08641 0.0383291 0)
(-1.08449 0.0366376 0)
(-1.08303 0.0345511 0)
(-1.08154 0.0320817 0)
(-1.07955 0.0292456 0)
(-1.0766 0.0260643 0)
(-1.07228 0.0225653 0)
(-1.06622 0.0187828 0)
(-1.05817 0.0147576 0)
(-1.04794 0.0105367 0)
(-1.03545 0.00617307 0)
(-1.0207 0.00172395 0)
(-1.00379 -0.00275029 0)
(-0.984875 -0.00718826 0)
(-0.879322 -0.0115295 0)
(-1.11331 0.0356801 3.0259e-17)
(-1.10526 0.0365449 0)
(-1.09856 0.0373317 1.9848e-17)
(-1.09345 0.0377562 -1.2742e-31)
(-1.08981 0.037811 -1.969e-17)
(-1.08741 0.0374832 0)
(-1.0859 0.036757 0)
(-1.08483 0.0356163 0)
(-1.08375 0.0340483 0)
(-1.08216 0.0320456 0)
(-1.0796 0.0296091 0)
(-1.07563 0.0267494 0)
(-1.0699 0.0234882 0)
(-1.06213 0.0198583 0)
(-1.05213 0.0159037 0)
(-1.03982 0.0116783 0)
(-1.02519 0.00724432 0)
(-1.00833 0.00267038 0)
(-0.989389 -0.00197136 0)
(-0.86819 -0.00660773 0)
(-1.11168 0.0320433 1.94288e-17)
(-1.10392 0.0336408 0)
(-1.09755 0.0351953 1.98297e-17)
(-1.09277 0.0364582 6.81676e-32)
(-1.08949 0.0374037 -1.96841e-17)
(-1.08747 0.0379988 0)
(-1.08636 0.0382059 0)
(-1.08573 0.0379865 0)
(-1.08511 0.0373048 0)
(-1.08399 0.0361317 0)
(-1.0819 0.0344477 0)
(-1.0784 0.0322459 0)
(-1.07311 0.0295337 0)
(-1.06575 0.0263337 0)
(-1.05612 0.0226834 0)
(-1.04411 0.0186347 0)
(-1.02971 0.0142513 0)
(-1.01301 0.00960714 0)
(-0.994153 0.00478246 0)
(-0.864792 -0.000138766 0)
(-1.10943 0.0295581 0)
(-1.10188 0.0318443 0)
(-1.09574 0.0341237 1.97971e-17)
(-1.09124 0.0361808 6.5369e-19)
(-1.08827 0.0379747 -1.96622e-17)
(-1.08661 0.0394556 0)
(-1.08591 0.0405674 0)
(-1.08574 0.0412516 0)
(-1.08561 0.0414515 0)
(-1.08502 0.0411171 0)
(-1.08348 0.0402086 0)
(-1.08054 0.0387007 0)
(-1.07581 0.0365848 0)
(-1.06898 0.0338704 0)
(-1.05983 0.0305857 0)
(-1.04825 0.0267769 0)
(-1.03422 0.022506 0)
(-1.01779 0.0178486 0)
(-0.999135 0.0128905 0)
(-0.871101 0.00772391 0)
(-1.10661 0.0279139 -1.87268e-17)
(-1.09917 0.0308175 0)
(-1.09321 0.033756 0)
(-1.08892 0.0365452 -3.88558e-32)
(-1.08621 0.039132 0)
(-1.08488 0.0414526 0)
(-1.08456 0.043435 0)
(-1.08485 0.0450031 0)
(-1.08524 0.046081 0)
(-1.08523 0.0465985 0)
(-1.08432 0.0464956 0)
(-1.08202 0.0457275 0)
(-1.07794 0.0442676 0)
(-1.07175 0.0421099 0)
(-1.06321 0.03927 0)
(-1.05219 0.035785 0)
(-1.03864 0.0317115 0)
(-1.02262 0.0271236 0)
(-1.00428 0.022109 0)
(-0.888833 0.0167654 0)
(-1.10332 0.0268748 -9.77729e-18)
(-1.09589 0.030298 0)
(-1.09002 0.0338048 1.96937e-17)
(-1.08586 0.0372425 -6.72873e-19)
(-1.08336 0.0405481 -1.95735e-17)
(-1.08231 0.0436465 0)
(-1.08236 0.0464525 0)
(-1.08309 0.0488743 0)
(-1.08401 0.0508186 0)
(-1.08461 0.0521958 0)
(-1.08436 0.0529259 0)
(-1.08277 0.0529436 0)
(-1.07943 0.0522028 0)
(-1.07398 0.0506794 0)
(-1.06616 0.0483738 0)
(-1.05581 0.0453101 0)
(-1.04288 0.0415363 0)
(-1.0274 0.0371208 0)
(-1.00949 0.0321499 0)
(-0.919371 0.0267237 0)
(-1.09965 0.0262819 -4.19786e-18)
(-1.09214 0.030105 0)
(-1.08626 0.0340672 1.96259e-17)
(-1.08217 0.0380487 -7.4634e-32)
(-1.07981 0.041979 -1.95092e-17)
(-1.07897 0.0457744 0)
(-1.07934 0.0493389 0)
(-1.08048 0.0525674 0)
(-1.08192 0.0553508 0)
(-1.08313 0.0575817 0)
(-1.08357 0.0591602 0)
(-1.08274 0.0600005 0)
(-1.08021 0.0600355 0)
(-1.07558 0.0592215 0)
(-1.06858 0.0575403 0)
(-1.05902 0.0550005 0)
(-1.04683 0.0516373 0)
(-1.03201 0.0475101 0)
(-1.01467 0.0427001 0)
(-0.963714 0.0373057 0)
(-1.09584 0.00869493 0)
(-1.08804 0.0100242 0)
(-1.08207 0.0114106 1.95501e-17)
(-1.07795 0.0128188 -6.84016e-32)
(-1.07564 0.0142244 -1.94339e-17)
(-1.07495 0.0155981 0)
(-1.07557 0.0169065 0)
(-1.07708 0.0181124 0)
(-1.079 0.019177 0)
(-1.0808 0.0200616 0)
(-1.08194 0.0207299 0)
(-1.0819 0.0211495 0)
(-1.08021 0.0212948 0)
(-1.07647 0.0211476 0)
(-1.07038 0.0206986 0)
(-1.06171 0.0199479 0)
(-1.05037 0.0189047 0)
(-1.03633 0.017587 0)
(-1.0197 0.0160208 0)
(-1.02245 0.0142382 0)
(-1.31241 0.0217024 -9.18701e-18)
(-1.30639 0.0535313 -1.02219e-18)
(-1.29484 0.0842907 -2.27071e-17)
(-1.27792 0.114292 -1.0592e-18)
(-1.25575 0.143576 2.00718e-17)
(-1.22831 0.171774 -9.01263e-18)
(-1.19556 0.197911 3.46162e-18)
(-1.15769 0.220291 5.7427e-18)
(-1.11547 0.236679 4.79289e-18)
(-1.06841 0.246631 -3.96346e-18)
(-1.2927 0.0215107 3.78658e-18)
(-1.28792 0.0493774 -1.00619e-18)
(-1.278 0.0761482 5.4145e-18)
(-1.2633 0.102004 -7.88617e-18)
(-1.24419 0.126949 -4.83648e-18)
(-1.221 0.150746 -1.97449e-17)
(-1.19402 0.17282 -3.0741e-18)
(-1.16354 0.192166 1.19291e-17)
(-1.13007 0.207391 8.41691e-18)
(-1.09017 0.219143 -5.3291e-18)
(-1.27559 0.0193028 -1.2752e-17)
(-1.27197 0.0435438 -1.61051e-17)
(-1.26345 0.0668145 4.71023e-18)
(-1.2505 0.0892237 1.76591e-17)
(-1.2336 0.11077 1.18886e-19)
(-1.21326 0.1313 -4.15134e-18)
(-1.18993 0.15046 -5.45448e-18)
(-1.16404 0.167649 -2.32031e-18)
(-1.13603 0.182016 -1.18362e-18)
(-1.10261 0.19426 2.57105e-18)
(-1.26066 0.0162393 -6.46815e-19)
(-1.25807 0.0373822 -4.01428e-18)
(-1.25081 0.0576852 1.94842e-17)
(-1.23937 0.0772168 -1.4931e-17)
(-1.22431 0.0959969 -2.85076e-17)
(-1.20622 0.113945 2.09121e-17)
(-1.18566 0.130834 2.62151e-17)
(-1.16314 0.146274 5.78696e-18)
(-1.13912 0.159712 -3.67554e-17)
(-1.11065 0.171848 -1.87745e-17)
(-1.24761 0.0129052 9.03324e-18)
(-1.24591 0.0313637 -2.74288e-17)
(-1.23976 0.0490773 -8.04972e-18)
(-1.22963 0.0660835 3.43786e-18)
(-1.21613 0.0824328 3.85614e-18)
(-1.19987 0.0981203 3.19566e-17)
(-1.18148 0.11303 -8.38212e-18)
(-1.16152 0.126912 2.25008e-18)
(-1.14049 0.139394 -1.41437e-17)
(-1.11583 0.15114 -2.30158e-17)
(-1.23618 0.00957649 -3.96608e-18)
(-1.23525 0.0257162 1.89476e-17)
(-1.23008 0.0411714 -2.8414e-18)
(-1.22112 0.0559447 7.69318e-18)
(-1.20894 0.0701051 1.29515e-17)
(-1.19419 0.0837109 -6.25308e-18)
(-1.17754 0.0967426 1.02678e-17)
(-1.15959 0.109071 6.05259e-18)
(-1.14087 0.120457 -1.81809e-17)
(-1.11925 0.131532 -5.75824e-18)
(-1.22614 0.00635207 1.9623e-17)
(-1.22588 0.0204999 -8.9242e-20)
(-1.22159 0.0340068 -1.53647e-17)
(-1.21366 0.0468363 -4.68239e-18)
(-1.20264 0.059054 -8.80464e-18)
(-1.18916 0.0707536 -7.25547e-18)
(-1.17393 0.081986 -9.38622e-18)
(-1.15759 0.0927182 8.90381e-18)
(-1.1407 0.102825 1.32552e-17)
(-1.12157 0.112917 -7.11892e-18)
(-1.2173 0.00327513 -4.2088e-18)
(-1.21761 0.0157091 -1.13078e-17)
(-1.21412 0.0275482 1.97629e-18)
(-1.20713 0.0387176 1.71356e-17)
(-1.19712 0.0492611 1.08404e-17)
(-1.18473 0.0592765 -6.94639e-18)
(-1.17067 0.0688499 -1.29359e-17)
(-1.15564 0.0780124 -5.09502e-18)
(-1.14022 0.0867227 2.12039e-17)
(-1.12316 0.0955809 -2.62486e-18)
(-1.20948 0.000399836 1.24979e-17)
(-1.21029 0.0113413 -1.19807e-17)
(-1.20751 0.0217487 1.39504e-19)
(-1.20136 0.0315167 -4.42667e-18)
(-1.19226 0.0406575 1.11087e-17)
(-1.18082 0.0492484 1.47211e-17)
(-1.16775 0.0573773 -1.90682e-17)
(-1.15379 0.0651029 -1.57376e-17)
(-1.13956 0.0724345 3.62891e-18)
(-1.12421 0.0799515 1.88567e-17)
(-1.20259 -0.00219119 1.25506e-17)
(-1.2038 0.00742296 -1.21873e-17)
(-1.20164 0.0165836 1.00505e-18)
(-1.19623 0.0251669 3.33382e-17)
(-1.18794 0.0331533 -1.49616e-17)
(-1.17732 0.0405859 -4.76432e-19)
(-1.16509 0.0475302 -4.53601e-18)
(-1.15202 0.0540418 -8.03067e-18)
(-1.13875 0.0601472 1.39883e-17)
(-1.1248 0.0663843 -1.33857e-17)
(-1.19651 -0.00439627 -1.26966e-20)
(-1.19804 0.00400793 -2.43852e-17)
(-1.19639 0.0120572 3.94851e-18)
(-1.19162 0.0196234 2.06419e-17)
(-1.18402 0.0266614 -1.47102e-17)
(-1.17411 0.0331779 -9.29718e-18)
(-1.1626 0.0392034 1.5461e-17)
(-1.15026 0.0447696 1.57594e-17)
(-1.13778 0.0498946 1.89534e-19)
(-1.12496 0.0550537 -9.24472e-18)
(-1.19121 -0.00611165 9.26152e-18)
(-1.19295 0.00116352 4.19758e-18)
(-1.19171 0.00819514 2.37766e-18)
(-1.18745 0.0148643 -4.28451e-18)
(-1.18041 0.0211101 -2.13096e-18)
(-1.17109 0.0269078 -3.96988e-19)
(-1.16018 0.0322515 3.40611e-18)
(-1.14844 0.0371401 6.86767e-18)
(-1.13659 0.0415679 -5.07206e-18)
(-1.12465 0.0459326 -6.06385e-18)
(-1.18664 -0.00724618 -4.16443e-18)
(-1.1885 -0.00104333 -4.18337e-18)
(-1.18753 0.00503359 -1.41734e-18)
(-1.18365 0.0108852 1.67776e-17)
(-1.17705 0.0164459 -1.40213e-17)
(-1.16819 0.0216691 -2.55191e-17)
(-1.15775 0.0265177 -1.85107e-17)
(-1.14647 0.0309585 1.92449e-17)
(-1.13512 0.0349577 4.34789e-17)
(-1.12385 0.0388298 -1.9072e-17)
(-1.18278 -0.00773009 -1.41432e-19)
(-1.18467 -0.00255649 2.95229e-17)
(-1.18386 0.00260849 4.26147e-19)
(-1.18022 0.00769185 -1.59469e-17)
(-1.17391 0.012633 -3.21553e-18)
(-1.16537 0.0173736 3.59309e-19)
(-1.15525 0.0218554 -3.83771e-19)
(-1.14432 0.0260195 6.21922e-18)
(-1.13331 0.029807 -2.84238e-17)
(-1.12253 0.0334536 -1.29339e-17)
(-1.1796 -0.00751844 -3.85955e-17)
(-1.18144 -0.00333649 -2.52063e-17)
(-1.18067 0.000948506 2.17651e-18)
(-1.17713 0.00529316 1.81348e-17)
(-1.17098 0.0096487 -3.68779e-19)
(-1.16262 0.0139549 -4.58237e-18)
(-1.15269 0.018142 2.09828e-17)
(-1.14194 0.0221355 8.75479e-18)
(-1.13114 0.0258587 -2.67173e-17)
(-1.12067 0.0294787 -8.26189e-18)
(-1.1771 -0.0065908 1.26966e-17)
(-1.17881 -0.00336269 -2.57221e-17)
(-1.17797 7.05997e-05 2.68122e-19)
(-1.17442 0.00369539 3.82095e-17)