/*--------------------------------*- C++ -*----------------------------------*\
| =========                 |                                                 |
| \\      /  F ield         | OpenFOAM: The Open Source CFD Toolbox           |
|  \\    /   O peration     | Version:  2206                                  |
|   \\  /    A nd           | Website:  www.openfoam.com                      |
|    \\/     M anipulation  |                                                 |
\*---------------------------------------------------------------------------*/
FoamFile
{
    version     2.0;
    format      ascii;
    arch        "LSB;label=32;scalar=64";
    class       volScalarField;
    location    "0";
    object      Phi_nn_lap;
}
// * * * * * * * * * * * * * * * * * * * * * * * * * * * * * * * * * * * * * //

dimensions      [0 0 -1 0 0 0 0];

internalField   nonuniform List<scalar> 
2000
(
-15.0078
0.065249
0.10537
0.144102
0.181245
0.21662
0.250068
0.281456
0.310675
0.26851
-13.4922
0.021893
0.0594398
0.0959551
0.131262
0.165197
0.197615
0.228384
0.257393
0.210459
-11.8864
-0.023434
0.0112741
0.0452781
0.0784243
0.110569
0.141578
0.171331
0.199718
0.166764
-10.196
-0.0703601
-0.0387256
-0.00750204
0.02318
0.0531961
0.0824283
0.110767
0.138109
0.117529
-8.42841
-0.118471
-0.0901023
-0.0618866
-0.0339334
-0.00634833
0.0207671
0.0473161
0.0732071
0.0631279
-6.59223
-0.16732
-0.142354
-0.117318
-0.0923027
-0.0673963
-0.0426852
-0.0182525
0.00582158
0.00422843
-4.69754
-0.21644
-0.194951
-0.173199
-0.15126
-0.129208
-0.107117
-0.0850573
-0.063098
-0.058228
-2.7557
-0.265359
-0.247352
-0.228913
-0.210108
-0.191003
-0.17166
-0.15214
-0.132504
-0.123063
-0.779187
-0.313617
-0.299023
-0.283848
-0.268152
-0.251994
-0.235431
-0.218516
-0.201305
-0.188922
1.21852
-0.360777
-0.349461
-0.337425
-0.324728
-0.311427
-0.297574
-0.283224
-0.268427
-0.254361
-17.041
7.28517
6.71058
6.21693
5.7865
5.40621
5.06628
4.75925
4.47941
4.14378
-24.1981
0.32944
0.382212
0.430347
0.473511
0.511472
0.544104
0.571384
0.593379
0.614319
-23.5766
0.312759
0.364705
0.412265
0.455117
0.493033
0.525885
0.553637
0.576341
0.603089
-22.8565
0.292757
0.343821
0.390798
0.433376
0.471334
0.504533
0.532925
0.556539
0.590051
-22.037
0.269477
0.319562
0.3659
0.408193
0.446217
0.479827
0.508958
0.533614
0.574539
-21.1172
0.242963
0.291935
0.337532
0.379466
0.417516
0.451531
0.481424
0.507175
0.555822
-20.0964
0.213281
0.260963
0.305664
0.347109
0.38508
0.419417
0.450018
0.476838
0.533137
-18.9744
0.180521
0.2267
0.270303
0.311071
0.34879
0.383295
0.414471
0.44225
0.505735
-17.7515
0.144807
0.189239
0.231502
0.271353
0.308587
0.343039
0.374581
0.403127
0.472931
-16.4286
0.10631
0.148727
0.189373
0.228026
0.264492
0.298607
0.330239
0.359287
0.416245
3.99912
4.02605
3.96531
3.89878
3.82719
3.75132
3.67194
3.58977
3.5055
3.41977
3.33316
3.24619
3.15934
3.07302
2.98758
2.90334
2.82056
2.73946
2.66012
-132.018
0.615732
0.633232
0.635553
0.63493
0.630564
0.622879
0.612297
0.599234
0.584089
0.56724
0.549036
0.529797
0.509813
0.489341
0.468607
0.447809
0.427116
0.40667
0.382691
-141.235
0.594766
0.620955
0.623313
0.624633
0.622035
0.615936
0.606761
0.594931
0.580853
0.564915
0.547479
0.528877
0.509412
0.489355
0.468945
0.448389
0.427868
0.407536
0.377889
-146.199
0.571188
0.609706
0.611439
0.614903
0.614221
0.609809
0.602098
0.591518
0.578488
0.563414
0.546675
0.528622
0.509576
0.489825
0.469626
0.449202
0.428747
0.408427
0.373336
-149.053
0.543888
0.597168
0.597961
0.603988
0.605585
0.603164
0.597163
0.588023
0.576184
0.562071
0.546086
0.528607
0.509977
0.490509
0.47048
0.450135
0.429685
0.409312
0.371966
-149.846
0.512665
0.58276
0.582451
0.591498
0.595775
0.59569
0.591684
0.584214
0.57374
0.560715
0.54557
0.528711
0.510515
0.491322
0.471438
0.45113
0.430634
0.410151
0.375784
-148.742
0.477308
0.565885
0.564464
0.577021
0.584421
0.587058
0.585375
0.579843
0.570947
0.559169
0.544975
0.52881
0.511084
0.492176
0.472423
0.452125
0.431543
0.410903
0.385031
-145.989
0.437621
0.545969
0.54356
0.560146
0.571147
0.576934
0.577944
0.57466
0.567591
0.557252
0.544151
0.528774
0.511576
0.492978
0.473359
0.453054
0.432358
0.411523
0.398023
-141.883
0.404392
0.523872
0.520651
0.541644
0.55655
0.565733
0.569637
0.568768
0.563663
0.554878
0.542962
0.528445
0.51183
0.49358
0.474115
0.453811
0.432996
0.411953
0.411633
-136.738
0.298867
0.51328
0.509515
0.533445
0.550693
0.561679
0.56692
0.566995
0.56252
0.554122
0.54242
0.528001
0.511417
0.493169
0.473707
0.453423
0.432659
0.411703
0.430973
-130.155
0.330671
0.430599
0.468537
0.499479
0.52345
0.540657
0.551459
0.556341
0.555874
0.550682
0.541414
0.528716
0.513213
0.495489
0.476081
0.455468
0.434072
0.412258
0.390331
-128.845
0.346594
0.43192
0.46676
0.494969
0.516636
0.532006
0.541453
0.545448
0.544534
0.539294
0.530326
0.518223
0.503553
0.486847
0.468591
0.44922
0.429116
0.408608
0.387976
-133.979
0.343403
0.425655
0.459476
0.486923
0.508079
0.523176
0.532566
0.536696
0.536079
0.531269
0.522835
0.511343
0.497334
0.481319
0.463764
0.445089
0.425661
0.405802
0.385782
-138.142
0.340941
0.419826
0.452545
0.479146
0.499709
0.514453
0.52371
0.527904
0.527521
0.523087
0.515142
0.504222
0.490847
0.475502
0.458634
0.440646
0.421895
0.402688
0.38329
-142.248
0.339154
0.414404
0.445948
0.471628
0.491522
0.505837
0.514891
0.519083
0.518875
0.514762
0.507259
0.496874
0.484101
0.469402
0.453206
0.435898
0.417818
0.399266
0.380494
-146.295
0.337986
0.409358
0.439663
0.464355
0.483511
0.497331
0.506115
0.510243
0.51015
0.506307
0.4992
0.489311
0.477108
0.463032
0.44749
0.430848
0.413435
0.395536
0.377395
-150.284
0.33738
0.404657
0.433668
0.457313
0.47567
0.488932
0.497386
0.501391
0.50136
0.497736
0.490981
0.481549
0.469884
0.456404
0.441495
0.425507
0.408752
0.391502
0.373993
-154.215
0.337277
0.400268
0.427939
0.450486
0.467992
0.480642
0.48871
0.492538
0.492516
0.489064
0.482616
0.473603
0.462444
0.449533
0.435236
0.419886
0.403778
0.387172
0.370293
-158.089
0.337618
0.39616
0.422453
0.443861
0.460469
0.472458
0.480091
0.483692
0.483631
0.480306
0.474123
0.465491
0.454804
0.442434
0.428727
0.413997
0.398524
0.382555
0.366303
-161.907
0.338343
0.392301
0.417188
0.437422
0.453093
0.46438
0.471534
0.474864
0.47472
0.471477
0.46552
0.457232
0.446984
0.435127
0.421985
0.407856
0.393004
0.377661
0.36203
-165.669
0.339396
0.388662
0.412121
0.431155
0.445859
0.456408
0.463044
0.466063
0.465796
0.462597
0.456827
0.448847
0.439005
0.427631
0.415031
0.401482
0.387234
0.372506
0.357488
-169.376
0.34072
0.385214
0.407232
0.425048
0.43876
0.448542
0.454629
0.457302
0.456875
0.453681
0.448062
0.440356
0.430888
0.419969
0.407884
0.394894
0.381233
0.367105
0.352691
-173.028
0.342261
0.38193
0.402501
0.419087
0.43179
0.440784
0.446294
0.448591
0.447971
0.44475
0.439248
0.431782
0.422658
0.412164
0.400569
0.388115
0.37502
0.361478
0.347655
-176.626
0.343968
0.378785
0.397912
0.413262
0.424946
0.433135
0.438047
0.439942
0.439102
0.435823
0.430406
0.423149
0.414338
0.404241
0.393108
0.381167
0.368619
0.355645
0.342399
-180.171
0.345791
0.375755
0.393446
0.407564
0.418225
0.425597
0.429896
0.431369
0.430282
0.426918
0.421558
0.414481
0.405953
0.396225
0.385528
0.374075
0.362052
0.349627
0.336943
-183.663
0.347685
0.372821
0.38909
0.401984
0.411623
0.418175
0.421849
0.422883
0.421531
0.418057
0.412727
0.405802
0.397529
0.388141
0.377855
0.366864
0.355344
0.343448
0.331308
-187.103
0.349608
0.369962
0.384832
0.396516
0.405139
0.410871
0.413915
0.414498
0.412863
0.409259
0.403936
0.397136
0.389091
0.380018
0.370115
0.359562
0.34852
0.337131
0.325517
-190.492
0.351524
0.367163
0.380659
0.391152
0.398774
0.403691
0.406103
0.406227
0.404296
0.400545
0.395207
0.388509
0.380667
0.37188
0.362334
0.352194
0.341607
0.330703
0.319593
-193.83
0.353397
0.36441
0.376563
0.38589
0.392526
0.396639
0.398421
0.398084
0.395847
0.391933
0.386561
0.379943
0.37228
0.363755
0.35454
0.344786
0.334629
0.324187
0.313561
-197.118
0.643473
0.464623
0.295793
0.133441
-0.0216075
-0.168658
-0.307147
-0.436649
-0.556869
-0.667638
-0.768906
-0.86073
-0.943266
-1.01675
-1.0815
-1.13787
-1.1863
-1.22723
-1.26115
-201.941
-0.235803
-0.162267
-0.0860179
-0.00811184
0.0703418
0.148247
0.224583
0.29846
0.369662
0.571727
-0.224205
-0.156982
-0.0886758
-0.0203981
0.0467606
0.111791
0.173815
0.232116
0.294689
0.375353
-0.209798
-0.144072
-0.0771539
-0.0101527
0.0558497
0.119858
0.181012
0.238618
0.300033
0.380031
-0.195142
-0.131214
-0.0662607
-0.0013407
0.0625209
0.124386
0.183448
0.239059
0.297959
0.375218
-0.180238
-0.118079
-0.0550537
0.00782858
0.0695951
0.129362
0.186371
0.240016
0.296427
0.370692
-0.165129
-0.104712
-0.043578
0.0173088
0.0770251
0.134736
0.18973
0.24144
0.295387
0.366432
-0.149858
-0.0911563
-0.0318777
0.0270548
0.0847643
0.140462
0.193479
0.243283
0.294792
0.362415
-0.134465
-0.0774522
-0.0199956
0.0370223
0.0927672
0.146493
0.197569
0.245496
0.294595
0.358619
-0.118989
-0.0636407
-0.0079732
0.0471684
0.10099
0.152783
0.201954
0.248034
0.294754
0.35502
-0.103469
-0.0497612
0.00414896
0.0574514
0.109389
0.159289
0.20659
0.250849
0.295227
0.351597
-0.0879432
-0.0358518
0.0163318
0.067831
0.117923
0.165968
0.211431
0.253897
0.295975
0.348326
-0.0724465
-0.0219492
0.0285375
0.0782683
0.126551
0.172777
0.216437
0.257135
0.296963
0.345187
-0.0570143
-0.00808892
0.0407299
0.0887259
0.135236
0.179678
0.221566
0.260521
0.298155
0.342158
-0.0416803
0.00569487
0.0528739
0.0991679
0.143941
0.186633
0.226779
0.264017
0.299521
0.339221
-0.0264768
0.0193695
0.0649363
0.10956
0.152629
0.193605
0.23204
0.267585
0.30103
0.336356
-0.0114348
0.0329038
0.0768853
0.11987
0.161268
0.20056
0.237314
0.271192
0.302654
0.333548
0.00341614
0.0462681
0.0886909
0.130067
0.169827
0.207467
0.242569
0.274804
0.304366
0.330781
0.018048
0.0594343
0.100325
0.140122
0.178275
0.214296
0.247776
0.278393
0.306139
0.328042
0.0324448
0.0724551
0.111928
0.150231
0.186798
0.221158
0.252939
0.281866
0.30783
0.325167
3.30817
3.05364
2.7758
2.48308
2.18396
1.88646
1.59758
1.32308
1.06727
0.822702
-0.674658
-0.717641
-0.722626
-0.726016
-0.727667
-0.727429
-0.725148
-0.720668
-0.713829
19.1562
-0.656033
-0.692138
-0.69695
-0.700269
-0.701964
-0.701899
-0.699937
-0.695935
-0.689752
17.7412
-0.632758
-0.663012
-0.667795
-0.671195
-0.673094
-0.673371
-0.671903
-0.668563
-0.663223
16.2074
-0.60438
-0.629834
-0.634789
-0.638477
-0.640793
-0.64163
-0.640878
-0.638424
-0.634154
14.5665
-0.570524
-0.59222
-0.597606
-0.601843
-0.604841
-0.606502
-0.60673
-0.605426
-0.602487
12.8312
-0.530925
-0.549876
-0.556001
-0.561098
-0.565083
-0.567873
-0.569382
-0.569523
-0.568204
11.0146
-0.485514
-0.502644
-0.509854
-0.516149
-0.52146
-0.52571
-0.528825
-0.530727
-0.531337
9.1309
-0.434488
-0.450545
-0.459194
-0.467042
-0.474026
-0.480078
-0.485134
-0.489123
-0.491974
7.19449
-0.378357
-0.393806
-0.404236
-0.413976
-0.422968
-0.431155
-0.438476
-0.444869
-0.45027
5.22027
-0.317946
-0.332878
-0.345382
-0.357312
-0.368614
-0.379235
-0.389118
-0.398208
-0.406443
3.2233
2.58277
2.88728
3.14744
3.44171
3.77638
4.15941
4.60105
5.11471
5.71836
32.1059
-0.832142
-0.844656
-0.851194
-0.855587
-0.857601
-0.856995
-0.853522
-0.84693
-0.836972
25.0594
-0.821429
-0.836596
-0.843256
-0.847812
-0.850035
-0.849686
-0.846518
-0.84028
-0.830723
25.0914
-0.809422
-0.82738
-0.834045
-0.838654
-0.840982
-0.840793
-0.837846
-0.831893
-0.822687
24.94
-0.796035
-0.816935
-0.823506
-0.828071
-0.830412
-0.8303
-0.8275
-0.821771
-0.812873
24.6089
-0.781088
-0.805132
-0.811525
-0.815966
-0.818245
-0.818142
-0.815432
-0.809883
-0.801263
24.1022
-0.764325
-0.791791
-0.797941
-0.802195
-0.804356
-0.804213
-0.801554
-0.796159
-0.787809
23.4254
-0.745417
-0.776678
-0.782539
-0.786568
-0.788576
-0.788369
-0.785748
-0.780506
-0.772437
22.5848
-0.723964
-0.759512
-0.765062
-0.768849
-0.770699
-0.770432
-0.767862
-0.762801
-0.755056
21.5875
-0.697363
-0.73996
-0.745205
-0.748767
-0.750484
-0.750194
-0.747725
-0.742905
-0.735558
20.4416
-3496.36
2.28176
2.29653
2.3088
2.32123
2.33381
2.34655
2.35946
2.37255
2.38587
2.39944
2.4133
2.42752
2.44216
2.45729
2.47299
2.48938
2.50653
2.52452
2.47017
-3466.21
-0.61923
-0.541271
-0.559448
-0.577801
-0.596279
-0.614828
-0.633385
-0.65188
-0.670238
-0.688375
-0.706199
-0.723608
-0.740495
-0.756738
-0.77221
-0.786768
-0.800263
-0.813154
-0.825189
-3391.5
-0.742029
-0.536141
-0.554379
-0.572794
-0.591333
-0.609937
-0.62854
-0.647072
-0.665452
-0.683594
-0.701403
-0.718774
-0.735595
-0.751743
-0.767085
-0.781478
-0.794767
-0.808509
-0.819451
-3279.7
-0.844616
-0.53077
-0.549083
-0.567559
-0.586143
-0.604772
-0.623377
-0.641881
-0.660201
-0.678245
-0.695912
-0.713093
-0.729671
-0.745516
-0.760488
-0.774439
-0.787207
-0.801977
-0.811898
-3137.23
-0.868329
-0.52512
-0.543546
-0.562122
-0.580786
-0.599472
-0.618103
-0.636599
-0.654869
-0.672814
-0.690327
-0.70729
-0.723577
-0.739051
-0.753563
-0.766952
-0.779048
-0.795166
-0.803313
-2971.47
-0.783266
-0.519149
-0.537725
-0.556436
-0.575214
-0.593985
-0.612668
-0.631174
-0.649402
-0.667246
-0.684588
-0.701301
-0.717246
-0.732274
-0.746224
-0.758922
-0.770181
-0.787926
-0.793573
-2790.01
-0.598273
-0.51282
-0.531579
-0.550456
-0.569379
-0.588264
-0.607022
-0.625552
-0.643746
-0.661484
-0.678636
-0.695061
-0.710605
-0.725104
-0.738378
-0.750237
-0.760474
-0.780078
-0.782537
-2600.02
-0.355752
-0.506097
-0.525068
-0.544143
-0.56324
-0.582266
-0.60112
-0.619691
-0.637855
-0.655479
-0.672417
-0.68851
-0.703585
-0.717456
-0.729924
-0.740773
-0.749776
-0.771421
-0.770037
-2407.77
-0.116571
-0.499114
-0.518492
-0.538029
-0.557639
-0.577225
-0.596676
-0.61587
-0.63467
-0.652927
-0.670475
-0.687132
-0.702699
-0.71696
-0.729678
-0.740601
-0.749455
-0.774648
-0.771317
-2206.77
0.213125
-0.48653
-0.506748
-0.527203
-0.547812
-0.568481
-0.589105
-0.609564
-0.629726
-0.64944
-0.668539
-0.686832
-0.704108
-0.72013
-0.73463
-0.747312
-0.757848
-0.790194
-0.78112
-2110.3
-0.468643
-0.48733
-0.506055
-0.524712
-0.543185
-0.561341
-0.579035
-0.596106
-0.612375
-0.627647
-0.641707
-0.65432
-0.665228
-0.674155
-0.680801
-0.684848
-0.68596
-0.683788
-0.629837
-2124.73
-0.454115
-0.472606
-0.491259
-0.509984
-0.528677
-0.547218
-0.565478
-0.583309
-0.600548
-0.617013
-0.632504
-0.6468
-0.659658
-0.670813
-0.679976
-0.686836
-0.691061
-0.692301
-0.660135
-2123.51
-0.444265
-0.462072
-0.480032
-0.498057
-0.516043
-0.533876
-0.551426
-0.568551
-0.585089
-0.600862
-0.615674
-0.629306
-0.64152
-0.652055
-0.660627
-0.666932
-0.670645
-0.671424
-0.642027
-2121.81
-0.433959
-0.451065
-0.468317
-0.485627
-0.502895
-0.52001
-0.536844
-0.553256
-0.569089
-0.584167
-0.598295
-0.61126
-0.622825
-0.632735
-0.64071
-0.646452
-0.649643
-0.649949
-0.623112
-2119.64
-0.423216
-0.439608
-0.456142
-0.47273
-0.489275
-0.505667
-0.521783
-0.537482
-0.552609
-0.566991
-0.580437
-0.592734
-0.603651
-0.612934
-0.620308
-0.625481
-0.62814
-0.627962
-0.603484
-2117.01
-0.412059
-0.427732
-0.443543
-0.459407
-0.475229
-0.4909
-0.506299
-0.521289
-0.535715
-0.549406
-0.562172
-0.573805
-0.584074
-0.592729
-0.599499
-0.604098
-0.606219
-0.605545
-0.583234
-2113.94
-0.400517
-0.415471
-0.43056
-0.445703
-0.460807
-0.475764
-0.490454
-0.504741
-0.518473
-0.53148
-0.543573
-0.554546
-0.56417
-0.572198
-0.578364
-0.582383
-0.583958
-0.58278
-0.562453
-2110.45
-0.388624
-0.402863
-0.417238
-0.431669
-0.446063
-0.460316
-0.474308
-0.487904
-0.500953
-0.513285
-0.524714
-0.535033
-0.544016
-0.551419
-0.556978
-0.560415
-0.561437
-0.559744
-0.541226
-2106.56
-0.376418
-0.389953
-0.403625
-0.417357
-0.431056
-0.444619
-0.457927
-0.470846
-0.483224
-0.494893
-0.505667
-0.515339
-0.523686
-0.530465
-0.535417
-0.538266
-0.538729
-0.536511
-0.519635
-2102.28
-0.363941
-0.376787
-0.389773
-0.402823
-0.415845
-0.428736
-0.441377
-0.453635
-0.465357
-0.476375
-0.486504
-0.495537
-0.503253
-0.50941
-0.513752
-0.51601
-0.515905
-0.513152
-0.497759
-2097.62
-0.351241
-0.363416
-0.375737
-0.388126
-0.400492
-0.412731
-0.424725
-0.436339
-0.447421
-0.457802
-0.467296
-0.475698
-0.482786
-0.488321
-0.492052
-0.493713
-0.493032
-0.489735
-0.475672
-2092.62
-0.338365
-0.349895
-0.361575
-0.373327
-0.38506
-0.39667
-0.408038
-0.419026
-0.429484
-0.439241
-0.448111
-0.455888
-0.462352
-0.467266
-0.470382
-0.471439
-0.470174
-0.466322
-0.453444
-2087.28
-0.325368
-0.33628
-0.347346
-0.358487
-0.369613
-0.380618
-0.391381
-0.401764
-0.411614
-0.42076
-0.429014
-0.436172
-0.442014
-0.446306
-0.448802
-0.449249
-0.447391
-0.442972
-0.431143
-2081.63
-0.312304
-0.322627
-0.333109
-0.343669
-0.354215
-0.364639
-0.374818
-0.384615
-0.393872
-0.402419
-0.410067
-0.41661
-0.421831
-0.425498
-0.427369
-0.427198
-0.424736
-0.41974
-0.40883
-2075.68
-0.299228
-0.308996
-0.318925
-0.328933
-0.338926
-0.348794
-0.358413
-0.367641
-0.376321
-0.384279
-0.391326
-0.397258
-0.401857
-0.404895
-0.406135
-0.405337
-0.402262
-0.396677
-0.386564
-2069.46
-0.286198
-0.295445
-0.304853
-0.31434
-0.323807
-0.333144
-0.342223
-0.350899
-0.359015
-0.366394
-0.372846
-0.378168
-0.382143
-0.384546
-0.385147
-0.383713
-0.380014
-0.373831
-0.364399
-2062.97
-0.273271
-0.282032
-0.290952
-0.299947
-0.308917
-0.317746
-0.326303
-0.334444
-0.342006
-0.348813
-0.354673
-0.359384
-0.362731
-0.364494
-0.364447
-0.362367
-0.358034
-0.351242
-0.342386
-2056.25
-0.260503
-0.268813
-0.277278
-0.285811
-0.294308
-0.302651
-0.310706
-0.318324
-0.325342
-0.331581
-0.336851
-0.340948
-0.343662
-0.344777
-0.344073
-0.341337
-0.33636
-0.328951
-0.320573
-2049.31
-0.247949
-0.255842
-0.263884
-0.271983
-0.280032
-0.287909
-0.295476
-0.302583
-0.309064
-0.314738
-0.319416
-0.322895
-0.32497
-0.325428
-0.324058
-0.320655
-0.315026
-0.306993
-0.299003
-2038.48
3.51039
3.55907
3.60463
3.64693
3.68582
3.72113
3.75267
3.78022
3.80355
3.82239
3.83646
3.84545
3.84901
3.84678
3.83837
3.82337
3.80135
3.77188
3.70309
-0.773073
-0.702564
-0.657015
-0.621551
-0.581677
-0.53693
-0.486987
-0.431711
-0.371177
-0.305693
-0.735885
-0.674753
-0.631339
-0.596
-0.556369
-0.512124
-0.463112
-0.409393
-0.351268
-0.289282
-0.688828
-0.636951
-0.598841
-0.566722
-0.529923
-0.488191
-0.441435
-0.389763
-0.333515
-0.273264
-0.662548
-0.614246
-0.577643
-0.545694
-0.5092
-0.467936
-0.421839
-0.371044
-0.315911
-0.257018
-0.63616
-0.591181
-0.556024
-0.524309
-0.48817
-0.44741
-0.401998
-0.352097
-0.298083
-0.240541
-0.609712
-0.567823
-0.534049
-0.502623
-0.466881
-0.426659
-0.381956
-0.332963
-0.280074
-0.223877
-0.583249
-0.544238
-0.511779
-0.480689
-0.445382
-0.405727
-0.361755
-0.313684
-0.261924
-0.207067
-0.556815
-0.520487
-0.489274
-0.45856
-0.42372
-0.384658
-0.341437
-0.294301
-0.243674
-0.19015
-0.530452
-0.496627
-0.466589
-0.436284
-0.40194
-0.363495
-0.321043
-0.274853
-0.225362
-0.173167
-0.504201
-0.472715
-0.443778
-0.413911
-0.380086
-0.342278
-0.300613
-0.255379
-0.207028
-0.156154
-0.4781
-0.448803
-0.420895
-0.391485
-0.3582
-0.321048
-0.280183
-0.235916
-0.188708
-0.13915
-0.452187
-0.424942
-0.397987
-0.369052
-0.336324
-0.299843
-0.259793
-0.216501
-0.170437
-0.12219
-0.426497
-0.401178
-0.375102
-0.346654
-0.314496
-0.278701
-0.239477
-0.197169
-0.152251
-0.105309
-0.401063
-0.377555
-0.352286
-0.324333
-0.292756
-0.257659
-0.219272
-0.177954
-0.134183
-0.0885399
-0.375918
-0.354116
-0.32958
-0.302127
-0.271141
-0.236752
-0.199212
-0.15889
-0.116267
-0.0719155
-0.351093
-0.330898
-0.307027
-0.280075
-0.249686
-0.216015
-0.179329
-0.140009
-0.0985332
-0.0554668
-0.326615
-0.307937
-0.284664
-0.258213
-0.228426
-0.19548
-0.159656
-0.121341
-0.0810123
-0.0392235
-0.302514
-0.285267
-0.262529
-0.236577
-0.207395
-0.175179
-0.140224
-0.102917
-0.0637332
-0.023214
-0.280045
-0.263543
-0.240879
-0.215057
-0.186242
-0.154681
-0.120662
-0.0845135
-0.0466227
-0.00745378
3.75427
3.87877
3.96244
4.01773
4.03945
4.02304
3.96502
3.86344
3.71832
3.5318
)
;

boundaryField
{
    down
    {
        type            symmetryPlane;
    }
    right
    {
        type            extrapolatedCalculated;
        value           nonuniform List<scalar> 
30
(
-132.018
-141.235
-146.199
-149.053
-149.846
-148.742
-145.989
-141.883
-136.738
-130.155
-128.845
-133.979
-138.142
-142.248
-146.295
-150.284
-154.215
-158.089
-161.907
-165.669
-169.376
-173.028
-176.626
-180.171
-183.663
-187.103
-190.492
-193.83
-197.118
-201.941
)
;
    }
    up
    {
        type            symmetryPlane;
    }
    left
    {
        type            extrapolatedCalculated;
        value           nonuniform List<scalar> 
30
(
-3496.36
-3466.21
-3391.5
-3279.7
-3137.23
-2971.47
-2790.01
-2600.02
-2407.77
-2206.77
-2110.3
-2124.73
-2123.51
-2121.81
-2119.64
-2117.01
-2113.94
-2110.45
-2106.56
-2102.28
-2097.62
-2092.62
-2087.28
-2081.63
-2075.68
-2069.46
-2062.97
-2056.25
-2049.31
-2038.48
)
;
    }
    cylinder
    {
        type            symmetry;
    }
    defaultFaces
    {
        type            empty;
    }
}


// ************************************************************************* //
