/*--------------------------------*- C++ -*----------------------------------*\
| =========                 |                                                 |
| \\      /  F ield         | OpenFOAM: The Open Source CFD Toolbox           |
|  \\    /   O peration     | Version:  2206                                  |
|   \\  /    A nd           | Website:  www.openfoam.com                      |
|    \\/     M anipulation  |                                                 |
\*---------------------------------------------------------------------------*/
FoamFile
{
    version     2.0;
    format      ascii;
    arch        "LSB;label=32;scalar=64";
    class       volScalarField;
    location    "0";
    object      Phi_nn;
}
// * * * * * * * * * * * * * * * * * * * * * * * * * * * * * * * * * * * * * //

dimensions      [0 2 -1 0 0 0 0];

internalField   nonuniform List<scalar> 
2000
(
1.43686
1.43198
1.42667
1.42093
1.41478
1.40822
1.40129
1.39399
1.38634
1.37835
1.4837
1.48301
1.48184
1.48019
1.47808
1.47552
1.47254
1.46914
1.46534
1.46116
1.53084
1.53444
1.53752
1.54009
1.54216
1.54376
1.54488
1.54556
1.54581
1.54564
1.57803
1.586
1.59342
1.60032
1.6067
1.61258
1.61797
1.6229
1.62738
1.63142
1.62498
1.63738
1.64923
1.66053
1.67132
1.68161
1.6914
1.70072
1.70959
1.71802
1.67143
1.68828
1.70459
1.72037
1.73564
1.75041
1.76471
1.77855
1.79194
1.80491
1.71705
1.73836
1.75915
1.77943
1.79922
1.81854
1.8374
1.85584
1.87385
1.89147
1.76155
1.78728
1.81252
1.83729
1.8616
1.88548
1.90895
1.93201
1.9547
1.97702
1.80461
1.83469
1.86432
1.89352
1.92232
1.95073
1.97876
2.00645
2.03381
2.06085
1.84591
1.88021
1.91413
1.94768
1.98087
2.01373
2.04627
2.07851
2.11048
2.14219
1.03126
0.992128
0.953292
0.914762
0.876547
0.838654
0.801091
0.763863
0.726976
0.690434
1.06405
1.02764
0.991471
0.955545
0.919874
0.884467
0.849332
0.814478
0.779911
0.745637
1.09897
1.06546
1.03211
0.998938
0.965953
0.933167
0.900589
0.868229
0.836096
0.804196
1.13589
1.10543
1.07506
1.04479
1.01464
0.984607
0.954716
0.924973
0.89539
0.865975
1.17466
1.14741
1.12017
1.09296
1.06577
1.03864
1.01157
0.984573
0.957662
0.930849
1.21513
1.19125
1.16729
1.14327
1.11921
1.09512
1.07101
1.04689
1.02279
0.998704
1.25713
1.23677
1.21625
1.19558
1.17479
1.15388
1.13288
1.1118
1.09064
1.06943
1.3005
1.2838
1.26686
1.2497
1.23233
1.21477
1.19703
1.17913
1.16109
1.1429
1.34504
1.33215
1.31894
1.30544
1.29165
1.2776
1.26329
1.24874
1.23397
1.219
1.39056
1.38162
1.37229
1.36259
1.35255
1.34216
1.33145
1.32044
1.30913
1.29755
0.653643
0.616273
0.579288
0.542688
0.506474
0.470647
0.435205
0.400147
0.365472
0.331178
0.297264
0.263727
0.230565
0.197777
0.165359
0.133309
0.101625
0.070305
0.0393469
0.00874881
0.709465
0.67108
0.633099
0.595522
0.558349
0.52158
0.485213
0.449248
0.413682
0.378513
0.343739
0.309357
0.275364
0.241757
0.208533
0.17569
0.143224
0.111133
0.0794132
0.0480627
0.768571
0.728929
0.689714
0.650927
0.612567
0.574635
0.537128
0.500044
0.463382
0.427139
0.39131
0.355894
0.320887
0.286284
0.252083
0.218279
0.184868
0.151848
0.119213
0.0869624
0.830828
0.789687
0.749001
0.708773
0.669002
0.629687
0.590826
0.552417
0.514458
0.476944
0.439873
0.403239
0.367039
0.331269
0.295923
0.260997
0.226486
0.192386
0.158692
0.1254
0.896115
0.853233
0.810842
0.768943
0.727536
0.686621
0.646196
0.606257
0.566801
0.527826
0.489326
0.451296
0.413731
0.376626
0.339975
0.303773
0.268014
0.232691
0.1978
0.163334
0.964322
0.919459
0.875128
0.831329
0.788065
0.745333
0.703133
0.661462
0.620315
0.579688
0.539578
0.499976
0.460879
0.422279
0.384169
0.346542
0.309392
0.272711
0.236493
0.200731
1.03535
0.988265
0.941759
0.895834
0.85049
0.805728
0.761545
0.71794
0.674908
0.632445
0.590545
0.549201
0.508408
0.468156
0.428437
0.389245
0.35057
0.312403
0.274737
0.237563
1.10908
1.05955
1.01064
0.962361
0.914719
0.867713
0.821343
0.775605
0.730498
0.686015
0.642151
0.598898
0.556248
0.514194
0.472724
0.431831
0.391503
0.35173
0.312502
0.27381
1.18541
1.13319
1.08166
1.03081
0.980658
0.9312
0.88244
0.834376
0.787005
0.740323
0.694324
0.648999
0.60434
0.560336
0.516978
0.474254
0.432152
0.390661
0.349767
0.309458
1.26418
1.20907
1.1547
1.10107
1.0482
0.996093
0.944748
0.894169
0.844353
0.795298
0.746997
0.699442
0.652624
0.606532
0.561154
0.516477
0.472488
0.429172
0.386515
0.344503
1.32318
1.2663
1.21019
1.15486
1.10032
1.04659
0.993663
0.941549
0.890245
0.839748
0.790052
0.741151
0.693033
0.645688
0.599102
0.553262
0.508154
0.46376
0.420066
0.377055
1.36123
1.30378
1.24712
1.19125
1.1362
1.08196
1.02855
0.975977
0.924228
0.873305
0.823202
0.773912
0.725425
0.67773
0.630812
0.584657
0.53925
0.494575
0.450614
0.40735
1.3988
1.34079
1.28357
1.22716
1.17158
1.11684
1.06295
1.0099
0.957705
0.906352
0.855839
0.806158
0.757299
0.709251
0.661999
0.615529
0.569825
0.524869
0.480643
0.437131
1.43595
1.37736
1.31958
1.26263
1.20652
1.15127
1.09689
1.04336
0.990711
0.938923
0.887995
0.837919
0.788684
0.74028
0.692692
0.645904
0.5999
0.554663
0.510173
0.466412
1.47272
1.41354
1.3552
1.2977
1.24106
1.18529
1.1304
1.0764
1.02329
0.971056
0.919706
0.869228
0.819613
0.770847
0.722918
0.675808
0.629502
0.583981
0.539225
0.495216
1.50914
1.44939
1.39047
1.33241
1.27523
1.21894
1.16354
1.10905
1.05547
1.00279
0.95101
0.900124
0.85012
0.800987
0.75271
0.705274
0.65866
0.612851
0.567826
0.523566
1.54528
1.48493
1.42544
1.36682
1.30908
1.25226
1.19635
1.14136
1.0873
1.03417
0.981948
0.930644
0.880244
0.830735
0.782104
0.734333
0.687406
0.641303
0.596004
0.551488
1.58118
1.52023
1.46015
1.40096
1.34267
1.28531
1.22887
1.17338
1.11883
1.06523
1.01256
0.960831
0.910025
0.860132
0.811136
0.763023
0.715774
0.66937
0.62379
0.579012
1.61688
1.55534
1.49467
1.43489
1.37604
1.31812
1.26116
1.20515
1.1501
1.09602
1.0429
0.990728
0.939505
0.889216
0.839847
0.791381
0.743801
0.697087
0.651217
0.60617
1.65244
1.59029
1.52902
1.46866
1.40923
1.35076
1.29325
1.23671
1.18116
1.12659
1.07299
1.02038
0.968727
0.918031
0.868277
0.819448
0.771526
0.724491
0.678322
0.632996
1.68791
1.62514
1.56327
1.50232
1.44231
1.38326
1.3252
1.26813
1.21205
1.15698
1.10291
1.04983
0.997736
0.946621
0.896469
0.847264
0.798989
0.751622
0.705142
0.659527
1.72333
1.65995
1.59746
1.53591
1.47531
1.41569
1.35706
1.29944
1.24283
1.18724
1.13268
1.07912
1.02658
0.97503
0.924468
0.874874
0.826231
0.778519
0.731717
0.685801
1.75875
1.69474
1.63164
1.56948
1.50828
1.44807
1.38887
1.33069
1.27354
1.21743
1.16235
1.10831
1.0553
1.0033
0.952317
0.902319
0.853295
0.805225
0.758086
0.711856
1.79421
1.72958
1.66586
1.60308
1.54128
1.48048
1.42069
1.36194
1.30423
1.24758
1.19199
1.13744
1.08395
1.03149
0.980062
0.929647
0.880226
0.831782
0.784292
0.737733
1.82977
1.76451
1.70016
1.63677
1.57435
1.51294
1.45256
1.39323
1.33496
1.27775
1.22162
1.16656
1.11257
1.05963
1.00775
0.9569
0.907068
0.858234
0.810377
0.763473
1.86546
1.79957
1.7346
1.67057
1.60754
1.54551
1.48453
1.42461
1.36575
1.30799
1.25131
1.19571
1.14121
1.08778
1.03543
0.984127
0.933866
0.884625
0.836385
0.78912
1.90133
1.83481
1.7692
1.70455
1.64088
1.57824
1.51665
1.45612
1.39668
1.33833
1.28109
1.22495
1.16992
1.11598
1.06314
1.01137
0.960664
0.911
0.862358
0.814715
1.93741
1.87026
1.80402
1.73873
1.67444
1.61117
1.54895
1.48781
1.42777
1.36883
1.31102
1.25432
1.19874
1.14428
1.09093
1.03868
0.987508
0.937402
0.888341
0.840302
1.97375
1.90597
1.8391
1.77317
1.70824
1.64434
1.5815
1.51974
1.45908
1.39954
1.34113
1.28386
1.22773
1.17272
1.11885
1.0661
1.01444
0.963877
0.914378
0.865924
2.01038
1.94197
1.87446
1.8079
1.74234
1.6778
1.61432
1.55193
1.49065
1.4305
1.37149
1.31362
1.25691
1.20136
1.14694
1.09367
1.04151
0.990469
0.940513
0.891624
2.17465
2.09095
2.00482
1.91704
1.82835
1.73945
1.65096
1.56343
1.47734
1.39308
2.20825
2.12456
2.03862
1.95116
1.86292
1.77455
1.68666
1.59981
1.51446
1.431
2.24167
2.15801
2.07226
1.98512
1.89729
1.80943
1.72212
1.6359
1.55123
1.46849
2.27495
2.19132
2.10575
2.01892
1.93151
1.84413
1.75737
1.67173
1.58768
1.50559
2.30811
2.22451
2.13913
2.05261
1.96559
1.87868
1.79243
1.70734
1.62386
1.54236
2.34116
2.2576
2.17241
2.0862
1.99957
1.91311
1.82734
1.74276
1.6598
1.57882
2.37411
2.29061
2.20561
2.11971
2.03346
1.94744
1.86214
1.77804
1.69555
1.61503
2.407
2.32356
2.23876
2.15316
2.0673
1.9817
1.89685
1.81319
1.73114
1.65104
2.43984
2.35647
2.27188
2.18659
2.1011
2.01592
1.9315
1.84827
1.76662
1.68688
2.47264
2.38936
2.30498
2.22
2.1349
2.05012
1.96612
1.8833
1.80202
1.7226
2.50543
2.42224
2.33809
2.25343
2.1687
2.08434
2.00076
1.91832
1.83738
1.75826
2.53821
2.45513
2.37121
2.28689
2.20255
2.1186
2.03542
1.95336
1.87275
1.79388
2.57101
2.48805
2.40438
2.32039
2.23645
2.15292
2.07015
1.98846
1.90816
1.82953
2.60384
2.52101
2.4376
2.35397
2.27043
2.18732
2.10496
2.02364
1.94365
1.86523
2.6367
2.55402
2.4709
2.38763
2.3045
2.22183
2.13989
2.05894
1.97925
1.90103
2.66963
2.58711
2.50428
2.42139
2.3387
2.25647
2.17495
2.09438
2.01499
1.93697
2.70261
2.62028
2.53776
2.45526
2.37302
2.29125
2.21018
2.13
2.05091
1.97309
2.73568
2.65355
2.57135
2.48927
2.40749
2.32621
2.24559
2.16581
2.08704
2.00943
2.76884
2.68692
2.60507
2.52342
2.44213
2.36134
2.2812
2.20184
2.1234
2.04601
2.80209
2.72041
2.63892
2.55773
2.47694
2.39668
2.31703
2.23812
2.16003
2.08287
2.65907
2.59606
2.53317
2.47041
2.40778
2.34528
2.28294
2.22075
2.15872
2.09687
2.64071
2.57891
2.51722
2.45564
2.39417
2.33283
2.27161
2.21052
2.14956
2.08874
2.61371
2.55363
2.49364
2.43375
2.37394
2.31423
2.25461
2.19508
2.13566
2.07633
2.57841
2.52054
2.46274
2.405
2.34732
2.2897
2.23214
2.17464
2.11718
2.05977
2.53522
2.48002
2.42486
2.36973
2.31462
2.25954
2.20446
2.14939
2.09432
2.03925
2.48461
2.43252
2.38042
2.32832
2.2762
2.22405
2.17186
2.11962
2.06732
2.01496
2.42716
2.37856
2.32992
2.28122
2.23245
2.1836
2.13466
2.08561
2.03644
1.98714
2.36349
2.31873
2.27387
2.22891
2.18383
2.13861
2.09323
2.04769
2.00196
1.95603
2.29428
2.25365
2.21288
2.17194
2.13082
2.08951
2.04798
2.00622
1.9642
1.92193
2.22025
2.184
2.14754
2.11086
2.07395
2.03677
1.99932
1.96157
1.92351
1.88512
2.35445
2.30841
2.2623
2.21613
2.16991
2.12366
2.07739
2.03112
1.98485
1.93862
2.42233
2.37236
2.32236
2.27235
2.22233
2.17233
2.12235
2.07242
2.02255
1.97276
2.48283
2.42937
2.37593
2.3225
2.26911
2.21577
2.1625
2.10932
2.05624
2.00328
2.53546
2.47899
2.42256
2.36618
2.30987
2.25364
2.19752
2.14152
2.08566
2.02996
2.57982
2.52083
2.4619
2.40305
2.34429
2.28565
2.22714
2.16878
2.11058
2.05258
2.61556
2.55456
2.49364
2.43282
2.37212
2.31156
2.25114
2.1909
2.13084
2.07099
2.64243
2.57995
2.51756
2.4553
2.39317
2.33118
2.26936
2.20773
2.14629
2.08507
2.66026
2.59683
2.53352
2.47033
2.40729
2.3444
2.28169
2.21916
2.15683
2.09473
2.66896
2.60514
2.54143
2.47786
2.41443
2.35115
2.28805
2.22514
2.16242
2.09991
2.66854
2.60486
2.54129
2.47786
2.41457
2.35143
2.28845
2.22565
2.16304
2.10062
3.20578
3.16488
3.12381
3.08257
3.04115
2.99955
2.95778
2.91583
2.87371
2.8314
2.78892
2.74627
2.70344
2.66045
2.61729
2.57397
2.5305
2.48689
2.44313
2.39924
3.28165
3.24059
3.19934
3.1579
3.11627
3.07445
3.03244
2.99024
2.94784
2.90525
2.86247
2.8195
2.77634
2.73299
2.68947
2.64577
2.6019
2.55786
2.51367
2.46934
3.35635
3.3148
3.27306
3.23111
3.18895
3.14659
3.10402
3.06124
3.01824
2.97504
2.93162
2.888
2.84417
2.80014
2.75591
2.71149
2.66688
2.62209
2.57713
2.532
3.42986
3.3875
3.34492
3.30212
3.25909
3.21584
3.17236
3.12865
3.0847
3.04053
2.99612
2.95149
2.90663
2.86156
2.81626
2.77075
2.72504
2.67913
2.63303
2.58674
3.5022
3.45867
3.41489
3.37087
3.32661
3.28209
3.23733
3.19232
3.14705
3.10153
3.05576
3.00973
2.96347
2.91695
2.87021
2.82322
2.77602
2.7286
2.68097
2.63315
3.57338
3.52829
3.48294
3.43732
3.39143
3.34527
3.29884
3.25213
3.20515
3.15788
3.11034
3.06253
3.01445
2.96611
2.9175
2.86864
2.81954
2.7702
2.72064
2.67087
3.64341
3.59637
3.54905
3.50143
3.45352
3.40532
3.35681
3.308
3.25889
3.20947
3.15975
3.10974
3.05943
3.00883
2.95795
2.90679
2.85538
2.80371
2.7518
2.69966
3.7123
3.66291
3.61321
3.5632
3.51285
3.46219
3.41119
3.35986
3.3082
3.25621
3.20389
3.15125
3.09828
3.045
2.99142
2.93754
2.88338
2.82895
2.77427
2.71935
3.78009
3.72794
3.67545
3.62261
3.56942
3.51587
3.46196
3.40769
3.35305
3.29806
3.24271
3.187
3.13095
3.07456
3.01784
2.9608
2.90347
2.84585
2.78797
2.72985
3.84679
3.79146
3.73576
3.67968
3.62322
3.56636
3.50911
3.45147
3.39343
3.335
3.27618
3.21698
3.15741
3.09747
3.03718
2.97656
2.91562
2.85439
2.79289
2.73115
3.91011
3.85291
3.79531
3.73732
3.67892
3.62011
3.56088
3.50124
3.44119
3.38071
3.31983
3.25855
3.19688
3.13482
3.0724
3.00964
2.94654
2.88315
2.81948
2.75556
3.97085
3.91328
3.8553
3.79692
3.73812
3.67891
3.61927
3.5592
3.49871
3.4378
3.37647
3.31473
3.25258
3.19005
3.12714
3.06387
3.00026
2.93634
2.87214
2.80767
4.03094
3.97299
3.91464
3.85587
3.79668
3.73706
3.67701
3.61653
3.55561
3.49427
3.43249
3.37029
3.30769
3.24468
3.18128
3.11752
3.05341
2.98897
2.92424
2.85924
4.09038
4.03207
3.97334
3.91419
3.85461
3.79459
3.73414
3.67324
3.61191
3.55013
3.48792
3.42528
3.36221
3.29874
3.23487
3.17062
3.10601
3.04107
2.97582
2.91029
4.14921
4.09053
4.03143
3.9719
3.91194
3.85153
3.79068
3.72938
3.66763
3.60543
3.54279
3.47971
3.4162
3.35227
3.28793
3.22321
3.15811
3.09267
3.02691
2.96087
4.20745
4.14841
4.08894
4.02904
3.9687
3.90791
3.84666
3.78496
3.72281
3.66019
3.59713
3.53362
3.46967
3.40529
3.3405
3.27531
3.20974
3.14381
3.07756
3.011
4.26511
4.20572
4.14589
4.08562
4.02491
3.96374
3.90211
3.84002
3.77746
3.71445
3.65097
3.58704
3.52266
3.45784
3.3926
3.32696
3.26092
3.19452
3.12778
3.06073
4.32224
4.26249
4.20231
4.14168
4.0806
4.01906
3.95705
3.89458
3.83163
3.76822
3.70434
3.63999
3.57519
3.50995
3.44428
3.37819
3.3117
3.24483
3.17762
3.11008
4.37884
4.31875
4.25822
4.19724
4.1358
4.07389
4.01151
3.94866
3.88534
3.82153
3.75726
3.69251
3.62731
3.56165
3.49555
3.42903
3.3621
3.29478
3.22711
3.1591
4.43494
4.37451
4.31364
4.25231
4.19052
4.12826
4.06552
4.0023
3.9386
3.87442
3.80976
3.74463
3.67902
3.61296
3.54645
3.4795
3.41214
3.34439
3.27627
3.2078
4.49057
4.42981
4.36861
4.30694
4.2448
4.18219
4.1191
4.05552
3.99146
3.92691
3.86188
3.79636
3.73037
3.66391
3.597
3.52965
3.46187
3.3937
3.32514
3.25623
4.54575
4.48467
4.42314
4.36114
4.29866
4.23571
4.17228
4.10835
4.04393
3.97903
3.91363
3.84774
3.78138
3.71454
3.64724
3.57949
3.51131
3.44272
3.37374
3.3044
4.60051
4.53911
4.47725
4.41493
4.35213
4.28884
4.22507
4.16081
4.09605
4.03079
3.96504
3.89879
3.83206
3.76486
3.69718
3.62905
3.56048
3.4915
3.42211
3.35236
4.65486
4.59315
4.53098
4.46834
4.40522
4.34161
4.27751
4.21292
4.14782
4.08223
4.01613
3.94954
3.88246
3.81489
3.74686
3.67836
3.60941
3.54004
3.47027
3.40012
4.70883
4.64682
4.58434
4.52139
4.45796
4.39404
4.32962
4.2647
4.19928
4.13336
4.06693
4.00001
3.93259
3.86468
3.79629
3.72743
3.65813
3.58839
3.51824
3.4477
4.76244
4.70013
4.63736
4.57411
4.51037
4.44614
4.38141
4.31619
4.25045
4.18421
4.11746
4.05021
3.98246
3.91422
3.8455
3.7763
3.70665
3.63656
3.56605
3.49514
4.81572
4.75312
4.69005
4.6265
4.56247
4.49795
4.43292
4.36739
4.30135
4.2348
4.16774
4.10018
4.03212
3.96355
3.89451
3.82498
3.755
3.68456
3.61371
3.54245
4.86867
4.80579
4.74244
4.67861
4.61429
4.54947
4.48415
4.41833
4.352
4.28515
4.21779
4.14993
4.08156
4.01269
3.94333
3.87349
3.80319
3.73243
3.66125
3.58965
4.92133
4.85818
4.79455
4.73044
4.66584
4.60074
4.53514
4.46903
4.40241
4.33528
4.26763
4.19948
4.13082
4.06165
3.992
3.92186
3.85125
3.78018
3.70868
3.63676
4.97372
4.91029
4.84639
4.78201
4.71713
4.65176
4.58589
4.5195
4.45261
4.3852
4.31728
4.24884
4.1799
4.11045
4.04051
3.97009
3.89919
3.82783
3.75603
3.6838
2.71566
2.69496
2.6656
2.62791
2.58231
2.52927
2.46937
2.40325
2.33159
2.25513
2.76565
2.74151
2.70917
2.66894
2.62123
2.56649
2.50525
2.43813
2.36578
2.28891
2.81514
2.7876
2.75234
2.70963
2.65985
2.60343
2.5409
2.47281
2.39978
2.32251
2.86415
2.83328
2.79514
2.74999
2.69819
2.64014
2.57632
2.50728
2.43361
2.35595
2.91271
2.87858
2.83761
2.79006
2.73627
2.67661
2.61155
2.54159
2.46729
2.38925
2.96087
2.92352
2.87977
2.82986
2.77412
2.71289
2.6466
2.57575
2.50083
2.42244
3.00866
2.96813
2.92164
2.86942
2.81175
2.74898
2.6815
2.60976
2.53426
2.45552
3.0561
3.01245
2.96326
2.90876
2.8492
2.78491
2.71626
2.64367
2.56759
2.48853
3.10323
3.05649
3.00465
2.94789
2.88648
2.8207
2.7509
2.67747
2.60084
2.52147
3.15008
3.10029
3.04583
2.98685
2.92361
2.85636
2.78544
2.7112
2.63403
2.55436
3.19667
3.14388
3.08682
3.02566
2.96061
2.89193
2.8199
2.74486
2.66716
2.58722
3.24304
3.18727
3.12765
3.06433
2.9975
2.9274
2.85429
2.77847
2.70027
2.62006
3.28921
3.2305
3.16834
3.10288
3.0343
2.9628
2.88862
2.81204
2.73336
2.6529
3.33521
3.27358
3.20891
3.14134
3.07102
2.99815
2.92292
2.8456
2.76645
2.68576
3.38105
3.31653
3.24938
3.17972
3.10769
3.03345
2.9572
2.87915
2.79955
2.71864
3.42677
3.35938
3.28977
3.21804
3.14431
3.06873
2.99147
2.91271
2.83267
2.75156
3.47238
3.40214
3.33009
3.2563
3.1809
3.104
3.02574
2.94629
2.86583
2.78453
3.5179
3.44484
3.37036
3.29454
3.21747
3.13926
3.06003
2.9799
2.89903
2.81757
3.56335
3.48748
3.41059
3.33275
3.25404
3.17453
3.09434
3.01355
2.93228
2.85067
3.60875
3.53007
3.45079
3.37095
3.29061
3.20983
3.12868
3.04724
2.9656
2.88385
)
;

boundaryField
{
    down
    {
        type            symmetryPlane;
    }
    right
    {
        type            fixedValue;
        value           uniform 0;
    }
    up
    {
        type            symmetryPlane;
    }
    left
    {
        type            zeroGradient;
    }
    cylinder
    {
        type            symmetry;
    }
    defaultFaces
    {
        type            empty;
    }
}


// ************************************************************************* //
