/*--------------------------------*- C++ -*----------------------------------*\
| =========                 |                                                 |
| \\      /  F ield         | OpenFOAM: The Open Source CFD Toolbox           |
|  \\    /   O peration     | Version:  2206                                  |
|   \\  /    A nd           | Website:  www.openfoam.com                      |
|    \\/     M anipulation  |                                                 |
\*---------------------------------------------------------------------------*/
FoamFile
{
    version     2.0;
    format      ascii;
    arch        "LSB;label=32;scalar=64";
    class       volVectorField;
    location    "0";
    object      Phi_grad;
}
// * * * * * * * * * * * * * * * * * * * * * * * * * * * * * * * * * * * * * //

dimensions      [0 1 -1 0 0 0 0];

internalField   nonuniform List<vector> 
2000
(
(-1.11014 0.964106 -3.18388e-17)
(-1.11325 0.789553 1.48649e-17)
(-1.10433 0.667066 -1.43897e-17)
(-1.09731 0.570693 -2.47189e-17)
(-1.09172 0.493435 -1.27994e-17)
(-1.0872 0.430372 1.19775e-17)
(-1.08352 0.378493 -1.69583e-17)
(-1.08049 0.335184 1.49333e-18)
(-1.07803 0.298624 1.18586e-17)
(-1.07205 0.268586 1.68592e-17)
(-1.26114 0.941159 7.69013e-18)
(-1.23727 0.770652 -1.3145e-17)
(-1.20949 0.651017 2.56538e-17)
(-1.18752 0.55698 6.15553e-18)
(-1.17009 0.48151 -1.50192e-17)
(-1.15584 0.420031 2.93002e-18)
(-1.14421 0.369463 6.57181e-18)
(-1.13445 0.327178 -1.20531e-17)
(-1.12625 0.2917 7.87374e-18)
(-1.11691 0.261043 2.45609e-17)
(-1.4068 0.894905 3.67067e-17)
(-1.35677 0.732577 -7.11618e-17)
(-1.31084 0.618879 2.38947e-17)
(-1.27455 0.529457 2.97534e-17)
(-1.24555 0.457635 2.88679e-18)
(-1.22197 0.399213 -2.62709e-17)
(-1.20255 0.351069 3.06038e-18)
(-1.18636 0.310825 -2.13304e-17)
(-1.17256 0.277074 -1.03515e-17)
(-1.15963 0.245709 7.01771e-18)
(-1.54351 0.826463 -1.80991e-17)
(-1.469 0.676515 1.4413e-17)
(-1.40587 0.571491 -2.23432e-17)
(-1.35621 0.488732 -9.87688e-18)
(-1.31647 0.422301 3.66668e-18)
(-1.28411 0.368303 -6.66777e-18)
(-1.25743 0.323723 1.46015e-17)
(-1.23523 0.286434 1.99209e-18)
(-1.21638 0.255004 -2.03587e-17)
(-1.19967 0.224545 -5.19754e-17)
(-1.66778 0.737554 3.96582e-17)
(-1.57103 0.60361 2.44919e-17)
(-1.49225 0.509738 3.53041e-18)
(-1.43032 0.43583 1.13459e-17)
(-1.38089 0.376506 -3.69003e-18)
(-1.34071 0.328215 5.03012e-18)
(-1.30758 0.288408 -2.1963e-17)
(-1.28003 0.254998 -1.52841e-17)
(-1.25677 0.226626 5.92927e-18)
(-1.23654 0.199126 -6.92459e-18)
(-1.77646 0.630216 -4.59954e-19)
(-1.66033 0.51564 -1.39173e-17)
(-1.56794 0.435361 -2.51689e-18)
(-1.49525 0.372153 9.66898e-18)
(-1.43727 0.32143 4.20394e-18)
(-1.39025 0.280142 4.75881e-18)
(-1.3515 0.246022 -9.59063e-19)
(-1.31927 0.217268 -1.62944e-17)
(-1.29227 0.19287 -1.09761e-17)
(-1.26906 0.169533 1.18614e-17)
(-1.86706 0.507349 1.54373e-19)
(-1.73466 0.415024 8.4382e-18)
(-1.63095 0.350122 7.68382e-19)
(-1.54949 0.299199 5.66466e-20)
(-1.48423 0.258394 -1.06352e-17)
(-1.43154 0.225046 1.55665e-19)
(-1.38806 0.197383 2.46933e-17)
(-1.35201 0.174292 4.88203e-17)
(-1.3218 0.1547 1.43983e-17)
(-1.29612 0.13607 3.50352e-18)
(-1.93738 0.371731 -2.07899e-17)
(-1.79215 0.303845 8.12943e-19)
(-1.67966 0.256292 -1.13849e-18)
(-1.59131 0.218783 1.15759e-17)
(-1.52066 0.188826 1.0404e-17)
(-1.4634 0.164358 5.26944e-18)
(-1.41645 0.144067 -1.24683e-17)
(-1.3774 0.127168 9.86202e-18)
(-1.34469 0.112743 7.17166e-18)
(-1.31696 0.0992119 2.3776e-17)
(-1.98527 0.226735 -7.62346e-17)
(-1.83153 0.185134 0)
(-1.71297 0.15592 -2.07041e-17)
(-1.61989 0.132908 -3.46954e-17)
(-1.54557 0.11461 -5.1154e-19)
(-1.48525 0.0996615 1.19675e-18)
(-1.43582 0.0872013 -6.73452e-18)
(-1.39476 0.0767276 -2.8469e-17)
(-1.36035 0.0679415 -5.28775e-18)
(-1.33122 0.0599004 -2.76815e-17)
(-2.00971 0.0761104 4.56049e-17)
(-1.85157 0.0617269 -9.97186e-21)
(-1.72994 0.0516822 1.29834e-19)
(-1.63459 0.0437642 -8.84747e-20)
(-1.55825 0.0374871 -2.02226e-17)
(-1.49643 0.032371 -7.52473e-18)
(-1.44564 0.0280854 6.43279e-18)
(-1.40355 0.0245409 -1.67236e-17)
(-1.36828 0.0214609 6.94755e-18)
(-1.33858 0.0187318 5.67413e-18)
(-0.06876 0.0502481 -1.37623e-19)
(-0.25673 0.0411766 6.52996e-18)
(-0.377152 0.0348765 2.88792e-18)
(-0.471759 0.0297807 -3.16261e-18)
(-0.547325 0.0257787 -4.56785e-18)
(-0.608475 0.0224698 -4.86938e-18)
(-0.658699 0.0197568 1.38988e-17)
(-0.700347 0.0174814 2.63556e-19)
(-0.735324 0.0155776 -1.23291e-17)
(-0.764953 0.0141133 1.00828e-17)
(-0.0925641 0.224346 -3.68572e-18)
(-0.276032 0.183983 9.11451e-19)
(-0.393677 0.155519 -5.89246e-18)
(-0.486048 0.132957 5.72304e-19)
(-0.559728 0.115007 4.45502e-18)
(-0.619432 0.100314 -1.38392e-18)
(-0.668384 0.0881284 3.23879e-20)
(-0.70897 0.0779929 4.57543e-18)
(-0.74299 0.0694811 3.22764e-17)
(-0.771713 0.0629123 -1.32496e-17)
(-0.139195 0.367868 -8.26747e-18)
(-0.314513 0.301582 6.3774e-18)
(-0.426453 0.254896 1.50483e-18)
(-0.514146 0.21809 -1.19796e-17)
(-0.584112 0.188552 7.64998e-18)
(-0.640911 0.164402 -4.47249e-18)
(-0.687411 0.144407 1.21691e-18)
(-0.725828 0.127797 3.62849e-20)
(-0.758044 0.11372 -1.14397e-18)
(-0.785074 0.102884 1.19779e-17)
(-0.207895 0.502614 1.38167e-17)
(-0.370991 0.411907 -8.86476e-18)
(-0.474402 0.348247 7.12353e-18)
(-0.555464 0.297857 -6.76483e-18)
(-0.620117 0.257439 2.14302e-18)
(-0.672532 0.224358 2.62698e-17)
(-0.71537 0.197156 -3.67066e-18)
(-0.750766 0.174233 -3.43033e-18)
(-0.780388 0.154938 2.60049e-17)
(-0.804786 0.140071 2.09876e-17)
(-0.296905 0.625113 8.97591e-18)
(-0.444337 0.512358 7.26476e-18)
(-0.536694 0.43294 -1.50732e-18)
(-0.609108 0.370304 2.61457e-18)
(-0.66678 0.320023 -1.89244e-17)
(-0.713445 0.278856 2.68804e-18)
(-0.751756 0.244823 1.89449e-17)
(-0.783303 0.216257 -1.45907e-17)
(-0.809449 0.192106 -1.047e-17)
(-0.830552 0.173448 7.96961e-18)
(-0.403991 0.732309 -4.11022e-17)
(-0.532551 0.600108 -2.12726e-18)
(-0.611638 0.50708 3.05839e-18)
(-0.67361 0.433845 1.39937e-17)
(-0.723043 0.37477 1.12593e-17)
(-0.763065 0.326521 -1.72742e-18)
(-0.795671 0.286575 3.99505e-18)
(-0.822691 0.253011 -5.89815e-19)
(-0.84507 0.224322 2.14133e-18)
(-0.862103 0.202267 -1.59609e-17)
(-0.526796 0.821751 -1.05926e-17)
(-0.633625 0.673327 -3.42555e-18)
(-0.697384 0.569017 -2.22572e-17)
(-0.747474 0.486622 -7.15642e-18)
(-0.787459 0.420396 8.5315e-18)
(-0.819749 0.36639 2.89243e-18)
(-0.846232 0.321491 9.76229e-18)
(-0.868201 0.283555 -2.49313e-17)
(-0.886507 0.251071 1.16047e-18)
(-0.899498 0.226217 4.3836e-17)
(-0.66218 0.891179 1.09675e-17)
(-0.745029 0.730138 -5.0851e-18)
(-0.792084 0.616883 1.35817e-19)
(-0.828928 0.527665 -2.10952e-17)
(-0.858341 0.45601 5.18386e-18)
(-0.882283 0.397384 1.17259e-17)
(-0.902014 0.348684 4.20818e-18)
(-0.918619 0.307617 -4.22221e-18)
(-0.932726 0.272452 -3.15626e-17)
(-0.942375 0.245791 1.58352e-17)
(-0.806896 0.938669 2.72202e-17)
(-0.864079 0.768972 2.02731e-17)
(-0.892981 0.649784 1.17928e-17)
(-0.91573 0.555839 7.64984e-18)
(-0.933963 0.480291 -8.64252e-18)
(-0.948843 0.418725 1.45388e-17)
(-0.961208 0.367736 1.72383e-17)
(-0.971839 0.324955 -4.54298e-18)
(-0.981564 0.288534 9.74146e-18)
(-0.988683 0.261754 -1.02692e-17)
(-0.957414 0.963258 3.60061e-17)
(-0.987775 0.789024 3.41054e-17)
(-0.998025 0.666587 2.34975e-18)
(-1.00597 0.570188 -1.50035e-17)
(-1.01232 0.492919 -5.4173e-18)
(-1.01762 0.429973 -1.28523e-17)
(-1.02204 0.377916 6.85187e-18)
(-1.02584 0.334688 9.05278e-18)
(-1.02905 0.298449 3.5038e-18)
(-1.02977 0.272806 -8.37431e-20)
(-0.790023 0.0124122 -5.52633e-18)
(-0.811927 0.0104949 -1.19355e-17)
(-0.830707 0.00902168 -5.83821e-18)
(-0.846886 0.00777505 -2.54866e-17)
(-0.860871 0.00672217 3.81474e-17)
(-0.872958 0.00583387 7.24061e-18)
(-0.883445 0.0050732 -3.91304e-17)
(-0.892571 0.00442271 1.31152e-17)
(-0.900523 0.00385781 -2.14423e-19)
(-0.907452 0.0033684 -2.12226e-19)
(-0.913485 0.00292279 6.67393e-18)
(-0.918732 0.00252567 -1.39746e-17)
(-0.923252 0.0021603 6.39628e-18)
(-0.927116 0.00182349 7.54241e-20)
(-0.930363 0.00150345 -7.2459e-18)
(-0.933023 0.00120686 2.76254e-17)
(-0.935135 0.000922133 4.86613e-17)
(-0.936697 0.000651776 -2.01901e-17)
(-0.937722 0.000387077 -3.47223e-17)
(-0.938273 0.000127815 2.75496e-17)
(-0.795711 0.0553054 -4.40872e-17)
(-0.816775 0.0468675 -1.24602e-17)
(-0.834786 0.0403188 4.01436e-18)
(-0.850366 0.0347866 -8.54114e-19)
(-0.863832 0.03012 3.9084e-18)
(-0.875502 0.0261658 -1.79804e-17)
(-0.885652 0.0227861 -7.26311e-18)
(-0.894502 0.0198911 3.24353e-17)
(-0.902231 0.0173709 -8.79281e-19)
(-0.909006 0.0151521 -8.18623e-19)
(-0.914929 0.0131615 4.92131e-18)
(-0.920077 0.0113618 -6.69343e-18)
(-0.924531 0.00970352 -1.37614e-17)
(-0.92835 0.00817308 2.93129e-17)
(-0.931554 0.00674598 7.11514e-18)
(-0.934174 0.00540409 -1.46283e-17)
(-0.936258 0.00412255 -2.81553e-17)
(-0.937799 0.00291303 2.91343e-19)
(-0.938813 0.00172729 2.75552e-17)
(-0.939356 0.00057101 -7.17224e-18)
(-0.807027 0.0904475 -1.61024e-17)
(-0.826482 0.0768318 1.27946e-17)
(-0.84301 0.066216 2.14828e-18)
(-0.857343 0.0572602 -3.32802e-18)
(-0.869778 0.0496999 -4.12925e-19)
(-0.880612 0.0432847 -3.89287e-17)
(-0.890072 0.0378082 1.13515e-17)
(-0.898377 0.0330778 3.34631e-17)
(-0.905704 0.0289314 -1.00298e-19)
(-0.912164 0.0252398 2.06195e-17)
(-0.917844 0.0219182 -1.90058e-17)
(-0.922826 0.0188926 -4.70127e-17)
(-0.927139 0.0161152 -3.41743e-17)
(-0.930823 0.0135444 3.38774e-17)
(-0.933927 0.0111534 8.22517e-17)
(-0.93648 0.00890385 -2.0476e-17)
(-0.938484 0.00678714 -5.45724e-17)
(-0.939971 0.00477218 1.37597e-17)
(-0.940958 0.00282966 2.07589e-17)
(-0.941478 0.000934452 -6.99033e-18)
(-0.823632 0.12312 -3.95503e-17)
(-0.840577 0.104894 -4.9942e-17)
(-0.85491 0.0906334 -1.45231e-17)
(-0.867432 0.0786441 1.36516e-17)
(-0.87836 0.0685263 3.72201e-17)
(-0.88796 0.0599381 -4.56861e-18)
(-0.896458 0.0525629 -7.20339e-18)
(-0.904034 0.0461082 9.55649e-18)
(-0.910808 0.0403801 -1.08303e-18)
(-0.916858 0.0352294 -1.53076e-18)
(-0.922216 0.0305507 2.25562e-18)
(-0.926922 0.026279 3.89708e-20)
(-0.931016 0.0223577 -4.711e-18)
(-0.934528 0.018733 2.49495e-17)
(-0.937476 0.0153737 8.42964e-18)
(-0.939873 0.0122426 -1.75679e-17)
(-0.941755 0.00930806 -6.83616e-18)
(-0.943147 0.00652063 -3.33188e-19)
(-0.944055 0.00386139 6.98104e-18)
(-0.94454 0.00127238 9.70804e-20)
(-0.845206 0.152383 1.88744e-17)
(-0.858639 0.130372 -7.23938e-18)
(-0.870047 0.113083 2.41152e-17)
(-0.880151 0.0986438 1.69457e-17)
(-0.889142 0.0864771 -3.45506e-17)
(-0.897217 0.0760603 -2.74543e-17)
(-0.904584 0.0669487 -2.527e-18)
(-0.911336 0.0588338 3.32198e-17)
(-0.917488 0.0515112 -2.25525e-17)
(-0.92305 0.0448669 -2.30688e-17)
(-0.928008 0.0388127 3.58042e-17)
(-0.932372 0.0332745 -3.83696e-17)
(-0.936162 0.0282054 -1.58095e-17)
(-0.939389 0.0235605 3.11335e-17)
(-0.94208 0.0192789 -6.42773e-18)
(-0.944267 0.0153231 7.04678e-18)
(-0.945968 0.0116226 1.94943e-17)
(-0.947203 0.008136 9.23961e-20)
(-0.948001 0.00480598 -1.26345e-17)
(-0.948417 0.00158181 -1.31799e-17)
(-0.871505 0.17741 -8.35233e-18)
(-0.880158 0.152785 -2.00331e-17)
(-0.887793 0.133403 2.14134e-17)
(-0.894887 0.117308 8.25974e-18)
(-0.901621 0.103589 -2.48676e-17)
(-0.908103 0.0915262 1.52441e-17)
(-0.914336 0.0806808 4.45744e-18)
(-0.920253 0.0708246 -2.62362e-17)
(-0.925739 0.0618491 3.29113e-17)
(-0.930723 0.0536799 3.75848e-17)
(-0.935178 0.0462613 -1.98482e-17)
(-0.939079 0.0395278 -6.38523e-18)
(-0.942426 0.0334129 -3.68943e-18)
(-0.945266 0.0278506 6.42498e-18)
(-0.947611 0.0227556 -1.22052e-17)
(-0.949489 0.0180622 -2.37095e-17)
(-0.950948 0.0136922 1.7021e-17)
(-0.951995 0.00958823 5.30343e-18)
(-0.952652 0.00566153 7.92672e-19)
(-0.95297 0.00186433 6.26654e-18)
(-0.902554 0.197868 1.70525e-17)
(-0.904557 0.172348 -2.48801e-19)
(-0.9074 0.152154 -2.96122e-17)
(-0.911093 0.135046 -2.76201e-17)
(-0.915593 0.119768 4.52934e-19)
(-0.920604 0.10578 3.91704e-17)
(-0.925779 0.0929342 -9.22446e-18)
(-0.930819 0.0811998 -4.50401e-18)
(-0.935518 0.0705758 -2.91945e-17)
(-0.939772 0.0610026 8.49102e-18)
(-0.943527 0.052416 3.34254e-17)
(-0.946793 0.0447099 -1.06219e-17)
(-0.949574 0.0377676 -1.59649e-17)
(-0.951906 0.0314739 -3.15976e-19)
(-0.953826 0.0257404 -7.76224e-18)
(-0.955356 0.0204497 1.04642e-17)
(-0.956514 0.0155303 3.44695e-17)
(-0.957342 0.010883 -2.20871e-17)
(-0.957856 0.00644125 -2.33065e-17)
(-0.958071 0.00212725 -1.71214e-19)
(-0.938689 0.21496 2.16057e-17)
(-0.931504 0.19102 -9.39703e-18)
(-0.92845 0.170651 -2.80791e-17)
(-0.928929 0.15171 1.26236e-17)
(-0.931528 0.133814 7.80314e-18)
(-0.935143 0.117244 1.79394e-17)
(-0.939083 0.102212 3.29964e-17)
(-0.942961 0.0887758 -1.31269e-17)
(-0.946558 0.0768654 9.9263e-18)
(-0.949792 0.0663372 -6.38039e-18)
(-0.952636 0.0570064 -2.22388e-17)
(-0.955111 0.0486834 3.42946e-17)
(-0.957228 0.0412161 1.07956e-17)
(-0.958999 0.0344491 -4.15017e-17)
(-0.960451 0.0282562 1.38186e-18)
(-0.961603 0.0225339 9.3855e-18)
(-0.962484 0.0171658 -1.88005e-17)
(-0.963103 0.0120656 -1.05968e-17)
(-0.963467 0.00716145 4.15394e-17)
(-0.963614 0.00237347 3.21303e-17)
(-0.979315 0.233035 -3.62697e-18)
(-0.961896 0.212151 6.16555e-18)
(-0.952713 0.187729 -1.04975e-17)
(-0.950148 0.163975 -5.35634e-17)
(-0.950465 0.142506 -5.21422e-18)
(-0.951968 0.123606 1.68814e-17)
(-0.953953 0.107182 1.13625e-17)
(-0.956075 0.0929545 3.55272e-17)
(-0.958163 0.0805822 -1.30247e-17)
(-0.960133 0.0697565 -2.69992e-17)
(-0.961949 0.0601737 9.66736e-18)
(-0.963579 0.0516289 -1.10955e-17)
(-0.965 0.0439303 -3.52226e-18)
(-0.966224 0.0369028 2.756e-18)
(-0.967235 0.0304199 4.46137e-18)
(-0.968052 0.0243573 -5.68698e-18)
(-0.968684 0.0186286 1.24725e-17)
(-0.969128 0.0131426 3.0507e-17)
(-0.969397 0.00782205 1.01238e-17)
(-0.969499 0.00259931 -4.53516e-18)
(-1.01585 0.248425 -2.53619e-17)
(-0.997662 0.223914 -1.1821e-17)
(-0.983986 0.195877 2.48215e-17)
(-0.975448 0.170183 1.43494e-17)
(-0.971131 0.147507 -2.33581e-17)
(-0.969172 0.127951 -1.97557e-17)
(-0.968474 0.111185 -2.37265e-17)
(-0.968549 0.0967141 1.50228e-18)
(-0.969063 0.084121 2.35631e-17)
(-0.969832 0.0730542 -5.49153e-18)
(-0.970707 0.0632289 -3.40662e-18)
(-0.971591 0.0544329 -2.07805e-17)
(-0.972455 0.0464453 2.5117e-17)
(-0.973244 0.0391139 3.14941e-17)
(-0.973936 0.0323221 -3.19918e-17)
(-0.974509 0.0259348 -3.89287e-17)
(-0.974965 0.0198698 -1.07418e-17)
(-0.975307 0.0140389 1.45457e-17)
(-0.975521 0.00836452 1.05231e-17)
(-0.975625 0.00278294 4.59427e-18)
(-1.05246 0.238042 0)
(-1.03419 0.212223 -6.0713e-18)
(-1.01693 0.18901 1.26492e-17)
(-1.00366 0.166811 -3.89395e-18)
(-0.994609 0.146577 -1.11046e-17)
(-0.98874 0.128594 2.12086e-18)
(-0.985006 0.112721 0)
(-0.982713 0.0987099 -5.02452e-18)
(-0.981371 0.0862934 0)
(-0.980667 0.0752202 0)
(-0.98037 0.0652898 0)
(-0.980337 0.0563023 0)
(-0.98047 0.0480965 -3.48136e-18)
(-0.98067 0.0405395 4.48321e-18)
(-0.9809 0.0334998 2.4373e-18)
(-0.981133 0.0268916 0)
(-0.981333 0.020591 -1.4851e-18)
(-0.981499 0.0145486 -5.43078e-19)
(-0.981616 0.00866238 -1.46875e-19)
(-0.981676 0.00287693 0)
(-1.07321 0.215719 -1.14807e-17)
(-1.05314 0.195066 0)
(-1.03597 0.17689 1.87172e-17)
(-1.02254 0.158946 -3.20942e-31)
(-1.01243 0.141736 -1.8292e-17)
(-1.00506 0.125819 0)
(-0.999727 0.111278 0)
(-0.995922 0.0981133 0)
(-0.99323 0.0862175 0)
(-0.991343 0.0754432 0)
(-0.990028 0.0656667 0)
(-0.989123 0.0567332 0)
(-0.98852 0.0485268 0)
(-0.988125 0.0409392 0)
(-0.987862 0.0338466 0)
(-0.9877 0.0271639 0)
(-0.987599 0.0208061 0)
(-0.987542 0.014688 0)
(-0.987519 0.00874782 0)
(-0.987503 0.00290434 0)
(-1.08892 0.191704 -8.68846e-18)
(-1.06938 0.176039 3.18056e-18)
(-1.05221 0.161653 2.19313e-17)
(-1.03845 0.147035 2.65652e-18)
(-1.02765 0.132679 -1.61697e-17)
(-1.01925 0.119059 2.15107e-18)
(-1.01282 0.106266 1.91993e-18)
(-1.0079 0.0944007 1.70557e-18)
(-1.00417 0.0834795 0)
(-1.00133 0.07344 1.32686e-18)
(-0.99917 0.0642048 1.16001e-18)
(-0.997546 0.0556736 1.00587e-18)
(-0.996316 0.0477611 8.62915e-19)
(-0.995388 0.0403823 7.296e-19)
(-0.994699 0.0334521 6.0439e-19)
(-0.994189 0.0268854 4.85748e-19)
(-0.993818 0.0206204 0)
(-0.993561 0.0145642 2.63137e-19)
(-0.993401 0.00867899 1.56806e-19)
(-0.993317 0.00288268 5.20823e-20)
(-1.09928 0.168886 -8.22127e-18)
(-1.0813 0.157554 -4.16833e-19)
(-1.06498 0.146571 1.92413e-17)
(-1.05152 0.134891 -3.83981e-31)
(-1.04041 0.123057 -1.87974e-17)
(-1.03148 0.11144 2.13949e-32)
(-1.02438 0.10031 -1.3741e-31)
(-1.01871 0.0897677 1.84053e-17)
(-1.01419 0.0798751 -3.96256e-31)
(-1.01062 0.0706478 -1.82591e-17)
(-1.00779 0.0620314 7.00414e-32)
(-1.00557 0.0539875 1.02722e-31)
(-1.00381 0.0464617 3.5455e-31)
(-1.00243 0.0393768 6.20882e-32)
(-1.00136 0.0326864 2.28785e-31)
(-1.00053 0.0263131 1.80769e-17)
(-0.99992 0.0202028 -1.38029e-31)
(-0.999483 0.0142935 -1.8058e-17)
(-0.999201 0.00851811 1.29073e-31)
(-0.999054 0.00283009 1.05162e-31)
(-1.10624 0.148649 1.45389e-17)
(-1.09011 0.140538 -2.53914e-18)
(-1.07488 0.132107 1.70333e-17)
(-1.06196 0.122903 -2.22052e-18)
(-1.0511 0.113157 -2.1035e-17)
(-1.042 0.103365 -1.86753e-18)
(-1.03449 0.0937587 -1.69397e-18)
(-1.02834 0.0844849 -1.52642e-18)
(-1.02329 0.0756211 0)
(-1.01917 0.0672213 -1.21451e-18)
(-1.01583 0.0592779 -1.07099e-18)
(-1.01312 0.0517831 -9.35581e-19)
(-1.01093 0.0446982 -8.07577e-19)
(-1.00916 0.0379923 -6.86419e-19)
(-1.00776 0.0316035 -5.70991e-19)
(-1.00667 0.0254855 -4.60454e-19)
(-1.00584 0.0195917 0)
(-1.00525 0.0138681 -2.5056e-19)
(-1.00486 0.00827292 -1.49469e-19)
(-1.00466 0.00274965 -4.96787e-20)
(-1.11109 0.130969 5.87591e-18)
(-1.09653 0.124991 0)
(-1.08261 0.118649 1.95599e-17)
(-1.07047 0.111223 -7.37745e-32)
(-1.05995 0.103334 -1.91504e-17)
(-1.05088 0.0951123 0)
(-1.04326 0.0868749 0)
(-1.03685 0.0787768 0)
(-1.03145 0.0709107 0)
(-1.02696 0.0633386 0)
(-1.02323 0.0560913 0)
(-1.02015 0.0491765 0)
(-1.0176 0.0425789 0)
(-1.01553 0.036283 0)
(-1.01387 0.0302423 0)
(-1.01254 0.0244336 0)
(-1.01154 0.0188028 0)
(-1.0108 0.0133267 0)
(-1.01032 0.00795348 0)
(-1.01007 0.00264446 0)
(-1.11454 0.115469 0)
(-1.10133 0.110991 0)
(-1.08864 0.106119 1.96689e-17)
(-1.07727 0.10024 -3.52895e-31)
(-1.06721 0.0937433 -1.92816e-17)
(-1.05846 0.0868981 0)
(-1.05083 0.0798674 0)
(-1.0443 0.0728289 0)
(-1.03872 0.0658987 0)
(-1.03399 0.059131 0)
(-1.02999 0.0525798 0)
(-1.02663 0.0462529 0)
(-1.02382 0.0401735 0)
(-1.0215 0.0343107 0)
(-1.01961 0.0286567 0)
(-1.01811 0.0231883 0)
(-1.01694 0.0178669 0)
(-1.01609 0.0126847 0)
(-1.01555 0.00757139 0)
(-1.01525 0.00251761 0)
(-1.11695 0.101639 -1.6583e-17)
(-1.10496 0.0983067 0)
(-1.09336 0.0945167 1.97541e-17)
(-1.08284 0.089876 1.62382e-18)
(-1.07329 0.0845391 -1.93915e-17)
(-1.06475 0.0788387 0)
(-1.05733 0.0728676 0)
(-1.05081 0.0667882 0)
(-1.04515 0.0607088 0)
(-1.04028 0.054699 0)
(-1.03611 0.0488207 0)
(-1.03255 0.0430971 0)
(-1.02954 0.0375282 0)
(-1.02705 0.0321295 0)
(-1.02499 0.0268932 0)
(-1.02333 0.0217883 0)
(-1.02204 0.0168227 0)
(-1.0211 0.0119422 0)
(-1.02049 0.00713593 0)
(-1.02015 0.00237375 0)
(-1.11867 0.0892209 0)
(-1.10767 0.0866274 0)
(-1.09707 0.0837656 0)
(-1.08725 0.080053 -6.53119e-32)
(-1.07825 0.075799 0)
(-1.07013 0.0710345 0)
(-1.06288 0.0659761 0)
(-1.05646 0.0607552 0)
(-1.05081 0.055457 0)
(-1.04588 0.0501588 0)
(-1.04159 0.0449148 0)
(-1.03792 0.0397635 0)
(-1.03479 0.0347206 0)
(-1.03213 0.0297859 0)
(-1.02995 0.0249827 0)
(-1.02818 0.0202801 0)
(-1.02679 0.0156703 0)
(-1.02578 0.0111301 0)
(-1.02511 0.00665716 0)
(-1.02475 0.00221596 0)
(-1.11984 0.0779648 0)
(-1.10976 0.0761084 0)
(-1.09994 0.0738654 1.98729e-17)
(-1.09081 0.0710036 -1.28284e-18)
(-1.08231 0.0674456 -1.95544e-17)
(-1.07457 0.0635319 0)
(-1.06761 0.0592624 0)
(-1.06133 0.0547919 0)
(-1.05575 0.0501975 0)
(-1.05082 0.0455645 0)
(-1.04651 0.0409237 0)
(-1.04275 0.0363216 0)
(-1.03952 0.0317969 0)
(-1.03678 0.0273418 0)
(-1.03449 0.022964 0)
(-1.03265 0.0186713 0)
(-1.03119 0.0144405 0)
(-1.03011 0.0102638 0)
(-1.0294 0.00614591 0)
(-1.02902 0.00204503 0)
(-1.1205 0.0678299 0)
(-1.11123 0.0665175 0)
(-1.10218 0.0648159 1.99134e-17)
(-1.09367 0.0624955 -1.36704e-31)
(-1.08572 0.0596337 -1.9616e-17)
(-1.07831 0.056331 0)
(-1.07162 0.0527499 0)
(-1.06553 0.0489368 0)
(-1.06004 0.0449844 0)
(-1.05515 0.0409469 0)
(-1.05084 0.0368863 0)
(-1.04705 0.0328333 0)
(-1.04377 0.0287959 0)
(-1.04097 0.0248126 0)
(-1.03862 0.0208679 0)
(-1.03671 0.0169852 0)
(-1.0352 0.0131565 0)
(-1.03408 0.00936659 0)
(-1.03333 0.00560217 0)
(-1.03294 0.00186558 0)
(-1.12088 0.0585408 0)
(-1.11231 0.0575454 0)
(-1.10396 0.0563078 1.99456e-17)
(-1.09599 0.0544515 -1.35088e-31)
(-1.08847 0.0522085 -1.96658e-17)
(-1.08146 0.0494472 0)
(-1.07501 0.0464462 0)
(-1.0691 0.0432286 0)
(-1.06374 0.0398564 0)
(-1.05892 0.0363758 0)
(-1.05462 0.0328488 0)
(-1.05084 0.0292986 0)
(-1.04754 0.0257485 0)
(-1.04471 0.0222215 0)
(-1.04232 0.0187177 0)
(-1.04036 0.0152526 0)
(-1.03881 0.0118185 0)
(-1.03767 0.00842297 0)
(-1.0369 0.00504295 0)
(-1.03649 0.00167918 0)
(-1.12108 0.0499672 -2.02205e-17)
(-1.11309 0.0492694 0)
(-1.10527 0.0483412 1.99693e-17)
(-1.09777 0.046949 -1.34947e-31)
(-1.09072 0.0450927 -1.97065e-17)
(-1.08407 0.0428574 0)
(-1.07784 0.0403746 0)
(-1.07212 0.0376829 0)
(-1.06689 0.0348289 0)
(-1.06216 0.0318665 0)
(-1.05791 0.0288346 0)
(-1.05415 0.0257639 0)
(-1.05084 0.0226778 0)
(-1.048 0.0195995 0)
(-1.04559 0.0165366 0)
(-1.04361 0.0134891 0)
(-1.04203 0.0104649 0)
(-1.04085 0.00745615 0)
(-1.04008 0.00447059 0)
(-1.03966 0.00148814 0)
(-1.12107 0.0420911 3.04918e-17)
(-1.11363 0.0416121 0)
(-1.10628 0.040916 1.99875e-17)
(-1.09924 0.0398331 -1.27897e-31)
(-1.09257 0.0382862 -1.97397e-17)
(-1.08618 0.0365459 0)
(-1.08018 0.0345195 0)
(-1.07464 0.0322842 0)
(-1.06955 0.0299019 0)
(-1.06491 0.0274191 0)
(-1.06072 0.024859 0)
(-1.05699 0.0222524 0)
(-1.05371 0.0196149 0)
(-1.05085 0.0169697 0)
(-1.04843 0.0143322 0)
(-1.04643 0.0117102 0)
(-1.04484 0.00908815 0)
(-1.04366 0.00648159 0)
(-1.04287 0.00388277 0)
(-1.04244 0.001294 0)
(-1.12101 0.0347701 1.95968e-17)
(-1.11401 0.0344189 0)
(-1.10705 0.0339549 2.00015e-17)
(-1.1004 0.0330267 6.82204e-32)
(-1.09401 0.0318665 -1.97659e-17)
(-1.08784 0.0304898 0)
(-1.0821 0.02885 0)
(-1.07673 0.0270324 0)
(-1.07176 0.0250833 0)
(-1.0672 0.0230413 0)
(-1.06308 0.0209221 0)
(-1.05939 0.0187487 0)
(-1.05613 0.0165598 0)
(-1.05328 0.0143399 0)
(-1.05085 0.0121278 0)
(-1.04885 0.00990801 0)
(-1.04726 0.00769592 0)
(-1.04606 0.00549156 0)
(-1.04527 0.00329494 0)
(-1.04484 0.00109677 0)
(-1.12087 0.0278365 0)
(-1.11425 0.0276898 0)
(-1.10767 0.0273031 2.00126e-17)
(-1.10133 0.026607 4.80717e-19)
(-1.0951 0.0257562 -1.97856e-17)
(-1.08919 0.0246501 0)
(-1.08364 0.0233585 0)
(-1.07841 0.0219276 0)
(-1.07355 0.0203807 0)
(-1.06908 0.0187409 0)
(-1.06501 0.0170316 0)
(-1.06136 0.0152836 0)
(-1.05812 0.0135123 0)
(-1.05528 0.0117179 0)
(-1.05286 0.00991575 0)
(-1.05086 0.00809812 0)
(-1.04926 0.00630369 0)
(-1.04806 0.0044938 0)
(-1.04726 0.00269937 0)
(-1.04683 0.00089876 0)
(-1.12065 0.0212268 -1.8956e-17)
(-1.1144 0.0211928 0)
(-1.10814 0.0208834 0)
(-1.10195 0.0204967 -3.70348e-32)
(-1.09597 0.0198006 0)
(-1.09024 0.0189807 0)
(-1.08482 0.0180139 0)
(-1.07971 0.016931 0)
(-1.07495 0.0157554 0)
(-1.07055 0.0145024 0)
(-1.06654 0.0131952 0)
(-1.06291 0.0118571 0)
(-1.05969 0.0104804 0)
(-1.05688 0.00910361 0)
(-1.05447 0.00769592 0)
(-1.05246 0.00629596 0)
(-1.05086 0.004896 0)
(-1.04966 0.00349604 0)
(-1.04886 0.00209607 0)
(-1.04843 0.000699207 0)
(-1.12051 0.0150039 -9.92419e-18)
(-1.11448 0.0149278 0)
(-1.10837 0.0147731 2.00252e-17)
(-1.10241 0.0144637 -2.6132e-19)
(-1.09662 0.014077 -1.98129e-17)
(-1.09098 0.0134505 0)
(-1.08569 0.0127775 0)
(-1.08067 0.0120196 0)
(-1.07597 0.011192 0)
(-1.07164 0.0103102 0)
(-1.06766 0.00939753 0)
(-1.06407 0.00844617 0)
(-1.06087 0.00747162 0)
(-1.05807 0.00648932 0)
(-1.05567 0.00549156 0)
(-1.05366 0.00450153 0)
(-1.05206 0.00349604 0)
(-1.05086 0.00249827 0)
(-1.05006 0.00149278 0)
(-1.04963 0.000498881 0)
(-1.1204 0.00893897 -4.275e-18)
(-1.11455 0.00889478 0)
(-1.1086 0.00881744 2.00294e-17)
(-1.10264 0.0085854 -7.23926e-32)
(-1.09698 0.00843071 -1.98195e-17)
(-1.09154 0.00803624 0)
(-1.08625 0.00763404 0)
(-1.0813 0.00718544 0)
(-1.07666 0.00669816 0)
(-1.07235 0.0061722 0)
(-1.0684 0.00562305 0)
(-1.06484 0.00505842 0)
(-1.06165 0.00447833 0)
(-1.05886 0.0038905 0)
(-1.05646 0.00329494 0)
(-1.05446 0.00269937 0)
(-1.05286 0.00209607 0)
(-1.05166 0.00150051 0)
(-1.05086 0.000897213 0)
(-1.05043 0.000300102 0)
(-1.1204 0.00196966 0)
(-1.11455 0.00195943 0)
(-1.10868 0.00195943 2.00308e-17)
(-1.1028 0.00190787 -7.11619e-32)
(-1.09717 0.0018563 -1.98229e-17)
(-1.09178 0.00178411 0)
(-1.08654 0.00169645 0)
(-1.08161 0.00159333 0)
(-1.07699 0.0014902 0)
(-1.07271 0.0013716 0)
(-1.06877 0.00124785 0)
(-1.06522 0.00112409 0)
(-1.06204 0.000995184 0)
(-1.05925 0.000866274 0)
(-1.05686 0.000732208 0)
(-1.05486 0.000598142 0)
(-1.05326 0.000464076 0)
(-1.05206 0.000335166 0)
(-1.05126 0.000201099 0)
(-1.05083 6.70331e-05 0)
(-1.31312 0.0162064 -9.45977e-18)
(-1.30686 0.0521152 -9.87416e-19)
(-1.29455 0.0863646 -2.27078e-17)
(-1.2763 0.118463 -1.00236e-18)
(-1.25262 0.147748 2.0044e-17)
(-1.22383 0.173968 -8.87752e-18)
(-1.19026 0.197447 3.43891e-18)
(-1.15266 0.218968 5.73265e-18)
(-1.11173 0.23867 4.76297e-18)
(-1.06633 0.252479 -3.99292e-18)
(-1.29168 0.013662 3.89906e-18)
(-1.28686 0.0444728 -9.31216e-19)
(-1.27721 0.0741502 5.38156e-18)
(-1.26282 0.101811 -7.87399e-18)
(-1.24369 0.127295 -4.83773e-18)
(-1.21961 0.150556 -1.9722e-17)
(-1.19005 0.17208 -3.06394e-18)
(-1.1549 0.192153 1.18227e-17)
(-1.1182 0.211009 8.3581e-18)
(-1.08728 0.224989 -5.39045e-18)
(-1.27316 0.0114412 -1.26722e-17)
(-1.26922 0.0381301 -1.60992e-17)
(-1.26121 0.0640572 4.6959e-18)
(-1.24897 0.0886585 1.76461e-17)
(-1.23219 0.111801 1.5121e-19)
(-1.21035 0.133523 -4.07782e-18)
(-1.18341 0.153398 -5.54708e-18)
(-1.15285 0.170792 -2.44392e-18)
(-1.12539 0.183764 -1.21021e-18)
(-1.10377 0.193689 2.55328e-18)
(-1.25702 0.00970701 -4.49969e-19)
(-1.25363 0.0329529 -3.99636e-18)
(-1.24677 0.0556955 1.94302e-17)
(-1.23607 0.0777937 -1.48781e-17)
(-1.22104 0.098739 -2.83652e-17)
(-1.20158 0.118319 2.08654e-17)
(-1.17831 0.135662 2.58601e-17)
(-1.15377 0.149635 5.79957e-18)
(-1.13306 0.159004 -3.65673e-17)
(-1.11423 0.167712 -1.89253e-17)
(-1.24286 0.00826596 8.79523e-18)
(-1.23992 0.028645 -2.73104e-17)
(-1.23375 0.0486749 -8.01068e-18)
(-1.22416 0.0682517 3.5268e-18)
(-1.21087 0.0870682 3.64263e-18)
(-1.19397 0.104178 3.1597e-17)
(-1.17456 0.118962 -8.32355e-18)
(-1.15534 0.13024 2.27104e-18)
(-1.13832 0.138366 -1.41138e-17)
(-1.12056 0.146593 -2.30012e-17)
(-1.23031 0.00701681 -3.96789e-18)
(-1.22768 0.025015 1.88428e-17)
(-1.22218 0.0427096 -2.90277e-18)
(-1.21353 0.0599278 7.6212e-18)
(-1.20184 0.0763085 1.2666e-17)
(-1.1875 0.0911986 -6.07927e-18)
(-1.17165 0.103648 1.05265e-17)
(-1.15606 0.113233 6.11842e-18)
(-1.1413 0.120891 -1.81799e-17)
(-1.12474 0.128698 -5.71516e-18)
(-1.21927 0.00605983 1.95245e-17)
(-1.21683 0.0217657 -1.00208e-19)
(-1.21185 0.0373085 -1.51947e-17)
(-1.20419 0.0524469 -4.69262e-18)
(-1.19404 0.0665469 -8.75958e-18)
(-1.18189 0.0793822 -7.16178e-18)
(-1.16894 0.0900046 -9.42356e-18)
(-1.15587 0.0986298 9.09992e-18)
(-1.14275 0.105737 1.33082e-17)
(-1.12728 0.113159 -7.14693e-18)
(-1.20951 0.00520175 -4.15323e-18)
(-1.20734 0.0188966 -1.10913e-17)
(-1.2028 0.0324737 2.15075e-18)
(-1.19602 0.0456104 1.70494e-17)
(-1.18718 0.05789 1.10754e-17)
(-1.17701 0.0687318 -7.17833e-18)
(-1.16613 0.0780359 -1.29224e-17)
(-1.1549 0.0858377 -5.19882e-18)
(-1.14303 0.0925725 2.1458e-17)
(-1.12879 0.0994248 -2.63183e-18)
(-1.20097 0.00433621 1.2409e-17)
(-1.19897 0.0163137 -1.18726e-17)
(-1.19486 0.0281089 1.37288e-19)
(-1.18885 0.0394248 -4.38902e-18)
(-1.18133 0.0499617 1.07634e-17)
(-1.17264 0.0593398 1.49823e-17)
(-1.16329 0.0674861 -1.9306e-17)
(-1.15346 0.0745004 -1.56234e-17)
(-1.14255 0.0809046 3.52305e-18)
(-1.12969 0.0870355 1.91055e-17)
(-1.19354 0.00366602 1.2455e-17)
(-1.19168 0.014115 -1.20696e-17)
(-1.18799 0.0242155 1.1703e-18)
(-1.18272 0.0338881 3.29369e-17)
(-1.1761 0.0428568 -1.50575e-17)
(-1.16862 0.0510395 -3.75422e-20)
(-1.16053 0.0581673 -4.41743e-18)
(-1.15154 0.0646259 -8.09362e-18)
(-1.14167 0.0703962 1.37302e-17)
(-1.13002 0.0759225 -1.3492e-17)
(-1.18698 0.00309253 4.19391e-20)
(-1.18535 0.0121062 -2.40808e-17)
(-1.18211 0.0206959 3.71877e-18)
(-1.1774 0.029007 2.04135e-17)
(-1.1716 0.0366752 -1.4153e-17)
(-1.165 0.0436372 -9.44859e-18)
(-1.15768 0.0500027 1.57766e-17)
(-1.14957 0.0557813 1.54826e-17)
(-1.14057 0.060956 3.00122e-19)
(-1.13 0.0659079 -9.3178e-18)
(-1.18135 0.0026159 9.05295e-18)
(-1.17995 0.0101844 4.08573e-18)
(-1.17702 0.0175535 1.86601e-18)
(-1.1728 0.02459 -4.23022e-18)
(-1.16764 0.0311361 -2.52951e-18)
(-1.1617 0.0371411 -4.64771e-19)
(-1.15504 0.0427181 3.27037e-18)
(-1.14755 0.0477892 7.24315e-18)
(-1.13927 0.0524263 -5.20558e-18)
(-1.12968 0.056776 -6.32034e-18)
(-1.17655 0.00213705 -4.06428e-18)
(-1.17535 0.00855042 -4.27933e-18)
(-1.17268 0.0147907 -1.76141e-18)
(-1.16887 0.0207341 1.65141e-17)
(-1.16421 0.0262418 -1.40332e-17)
(-1.15874 0.0313665 -2.53436e-17)
(-1.15257 0.0362267 -1.8587e-17)
(-1.14565 0.040651 1.93337e-17)
(-1.13801 0.044552 4.35392e-17)
(-1.12928 0.0483542 -1.89066e-17)
(-1.17251 0.0016533 -1.39575e-19)
(-1.17143 0.00700877 2.94918e-17)
(-1.16899 0.0123095 7.75017e-19)
(-1.16554 0.0171544 -1.54908e-17)
(-1.16128 0.0218038 -2.87176e-18)
(-1.15614 0.0261316 4.16873e-19)
(-1.15036 0.0302601 -3.84876e-19)
(-1.144 0.0340211 5.86905e-18)
(-1.13684 0.0374153 -2.8485e-17)
(-1.12869 0.0406534 -1.27688e-17)
(-1.16919 0.00136709 -3.83231e-17)
(-1.16813 0.00565686 -2.48524e-17)
(-1.16596 0.0100144 2.94869e-18)
(-1.16282 0.0139432 1.79903e-17)
(-1.15876 0.017826 -4.21366e-19)
(-1.15394 0.0214347 -4.64515e-18)
(-1.14849 0.0247277 2.0849e-17)
(-1.14243 0.0279003 8.76553e-18)
(-1.13566 0.0307741 -2.67987e-17)
(-1.12817 0.0335074 -8.4456e-18)
(-1.16645 0.00107931 1.2807e-17)
(-1.16553 0.00459552 -2.55552e-17)
(-1.16347 0.00790329 9.35252e-20)
(-1.16051 0.0111094 3.76145e-17)
(-1.15668 0.0141187 8.39923e-18)
(-1.15219 0.0170017 2.49407e-18)