/*--------------------------------*- C++ -*----------------------------------*\
| =========                 |                                                 |
| \\      /  F ield         | OpenFOAM: The Open Source CFD Toolbox           |
|  \\    /   O peration     | Version:  2206                                  |
|   \\  /    A nd           | Website:  www.openfoam.com                      |
|    \\/     M anipulation  |                                                 |
\*---------------------------------------------------------------------------*/
FoamFile
{
    version     2.0;
    format      ascii;
    arch        "LSB;label=32;scalar=64";
    class       volScalarField;
    location    "0";
    object      Phi_lap;
}
// * * * * * * * * * * * * * * * * * * * * * * * * * * * * * * * * * * * * * //

dimensions      [0 0 -1 0 0 0 0];

internalField   nonuniform List<scalar> 
2000
(
3.13097e-05
0.00138445
0.00481332
-0.00142588
0.00254153
-0.0076415
0.00860084
-0.00823908
0.00499458
0.192301
0.00302356
-0.00891973
0.00205276
0.00145875
-0.00646262
0.00428553
-0.00310697
0.00448456
0.00180381
0.101543
0.000949228
-0.00635516
0.00571842
0.00404433
-0.00335516
0.00191666
-0.00428838
-0.00457312
0.00206372
-0.0192694
-0.000304284
0.00907495
-0.000830921
-0.00109573
-0.00288428
0.00626827
-0.00279975
0.00361441
0.00206607
-0.0633061
-0.00242643
-0.00356389
-0.00190625
-0.00297433
-0.00504981
0.00238893
0.00460168
-0.000179299
0.00287082
-0.0600394
-0.00792774
0.00686266
0.00278855
0.00523963
-0.00394932
0.00640473
-0.00377167
-0.00404701
-0.00289769
-0.042587
0.00925965
-0.00586942
-0.00784897
0.00840179
-0.002168
-0.00246389
-0.00218847
0.00450984
4.78931e-05
-0.0305228
0.00288965
-0.00114273
0.00329306
-0.00922383
0.00900983
-0.00834927
0.00696556
-0.0017224
-0.000649728
-0.0212436
-0.00516996
0.00738768
-0.00956659
0.00848381
0.000139263
0.00579144
-0.00649775
0.00332542
0.00184981
-0.00019102
0.00105963
-0.00648204
0.00256026
-0.0029101
0.00398203
-0.00496378
0.00156823
-0.0030894
-0.00427577
0.00189608
-0.00140943
-0.00156783
0.00863374
-0.00696193
0.0050632
-0.00231332
0.00248391
-0.000678649
-1.40521e-05
0.000177679
-0.00396036
0.00636177
-0.00892757
-0.00132428
-0.00209181
-0.000718983
-0.00053517
-0.00030749
-7.64835e-05
0.00119297
0.00101696
-0.00890348
0.00491577
0.00519428
0.00396532
-0.0055483
0.00529631
0.00204011
-0.000854626
0.00478499
0.00512549
0.00650328
-0.00264397
-0.00136141
-0.00359056
-0.00490664
0.00604403
-0.00640383
0.00196598
0.0115201
-0.00510298
0.0067375
-0.00760509
0.00781463
0.00101168
0.0027351
-0.00902684
0.00787037
-0.00269857
0.023017
-0.00191114
-0.00712522
-0.00163066
0.00362048
-0.00799911
0.00343753
0.00495897
-0.00290433
0.000606162
0.040806
0.000412105
0.0104114
0.00341459
-0.00711309
0.00316376
0.00455795
-0.00164583
-0.00177386
-0.00498021
0.0616261
-0.00151226
-0.00578994
-0.00557947
0.0100574
0.000209369
0.000430451
-0.000638884
-0.00053744
0.00525478
0.064481
-0.00430508
0.00522514
0.00499523
-0.00841344
-0.00525323
-0.00067141
0.000663948
0.00100877
-0.0032378
0.0694598
0.00632363
-0.00767351
-0.002634
0.00369749
0.00559039
7.89557e-05
-0.000123012
0.00474406
-0.00278077
0.026723
-0.00569531
-0.00451207
-0.0018114
-0.000617358
0.000829637
0.00307906
0.00318224
0.00452635
0.00420541
0.0054493
0.00424812
0.00442411
0.00371988
0.00322602
0.00248034
0.00216694
0.00101698
0.00161596
0.000573457
0.000462082
-0.0100357
-0.00724557
-0.00468589
-0.00120507
0.00194133
0.00403471
0.00535
0.00659236
0.0068905
0.00564835
0.00588532
0.00467471
0.00370704
0.00212478
0.00258613
0.00130837
0.000581363
0.000826051
0.000136923
0.000194068
-0.0153352
-0.0160053
-0.00852289
-0.00184561
0.00254918
0.00643886
0.00930549
0.0096927
0.00902688
0.00821714
0.00620213
0.00430866
0.00370277
0.00224192
0.000831561
-0.000390753
0.000262711
-0.0012714
-0.000441901
-0.000460262
-0.0197624
-0.0265736
-0.0141471
-0.00255017
0.00568422
0.0116336
0.0135642
0.0133438
0.0109489
0.00820195
0.00593602
0.00332324
0.001102
-0.000714212
-0.001193
-0.00114569
-0.00196811
-0.00148775
-0.0014028
-0.000939243
-0.0185007
-0.0383831
-0.0152747
0.00100151
0.0132812
0.0183669
0.0163249
0.0128674
0.00772848
0.00342642
0.000353227
-0.00241651
-0.00368839
-0.00391645
-0.00425676
-0.00380769
-0.00299336
-0.00218113
-0.00183066
-0.00106114
-0.00487277
-0.0382409
-0.00391201
0.0164085
0.0224515
0.0186663
0.0100512
0.0011508
-0.00465815
-0.00923227
-0.0112664
-0.0109603
-0.00978804
-0.00907265
-0.00620169
-0.00541723
-0.00388608
-0.0024738
-0.00144368
-0.000719922
0.0518842
-0.00158438
0.0355126
0.0368206
0.0187316
-0.0019579
-0.0187557
-0.0274355
-0.0312318
-0.0297344
-0.0261353
-0.0217724
-0.0163457
-0.0126649
-0.00868556
-0.00578929
-0.00272446
-0.00244272
-0.000612793
-9.05737e-05
0.210997
0.125933
0.082337
0.0181786
-0.0337556
-0.061589
-0.0723716
-0.0697646
-0.0611273
-0.0496249
-0.0387336
-0.0292401
-0.0208376
-0.0136955
-0.00875094
-0.00453103
-0.00274595
-0.000377832
-1.02516e-05
0.0002033
0.563563
0.309082
0.00959083
-0.108762
-0.142679
-0.141026
-0.122922
-0.0996561
-0.0776666
-0.0585274
-0.043429
-0.0301639
-0.0200591
-0.0130637
-0.00678843
-0.00435502
-0.00118275
-0.00060307
0.000351154
0.000216649
0.249656
0.027338
-0.0284243
-0.0676886
-0.0738538
-0.0576969
-0.0436809
-0.0321557
-0.0228747
-0.0171266
-0.010847
-0.00741485
-0.00538015
-0.00323132
-0.00239582
-0.00054708
-0.000986032
-0.000136394
-0.000289479
-0.000112027
-0.255298
-0.0896689
-0.0123595
0.0174498
0.0284045
0.0324251
0.0312106
0.0286226
0.0249387
0.0206339
0.0167881
0.0121877
0.00918023
0.00699468
0.00428001
0.00256623
0.00170189
0.000426087
0.000452306
-1.5839e-05
-0.0582688
0.00478591
-0.00239296
0.00143577
-0.00143577
0.000239296
0.000239296
-0.000239296
-0.000239296
-0.000478591
9.94193e-14
-3.64261e-14
-0.000239296
-0.000239296
0.000478591
-0.000239296
0.000478591
-0.000382873
2.39296e-05
4.78591e-05
-0.0481035
-0.00478591
0.00478591
-0.00239296
0.000478591
-0.000717887
1.30553e-13
-1.23703e-13
-0.000239296
0.000478591
0.000239296
-2.99918e-14
0.000478591
-1.22147e-13
-0.000239296
8.89377e-14
-5.92053e-14
4.78591e-05
-1.55874e-13
-1.02948e-13
-0.0347863
0.00239296
-0.00478591
0.00239296
0.00382873
-0.000717887
-0.000239296
0.000478591
0.000239296
2.50105e-13
-0.000239296
-0.000239296
-0.000239296
-0.000239296
0.000239296
-5.93091e-14
-0.000239296
0.000358943
-7.17887e-05
4.78591e-05
-0.0303616
0.00239296
0.00239296
-0.00239296
-0.00143577
0.000239296
-0.000239296
-1.9531e-13
0.000239296
-0.000239296
1.10627e-13
-1.0492e-13
-0.000239296
0.000478591
-0.000239296
0.000239296
0.000239296
-0.000598239
9.57183e-05
-5.64552e-14
-0.0158421
-0.00239296
0.00239296
-0.00478591
0.00478591
-0.000478591
-0.000239296
-1.37817e-13
0.000478591
2.32463e-14
0.000239296
-1.32836e-14
0.000478591
-0.000478591
-2.81238e-14
-4.09923e-15
-0.000478591
0.000741817
-0.000143577
2.39296e-05
-0.0115079
0.00478591
-0.00239296
0.00478591
-0.00454662
0.000957183
0.000239296
-0.000239296
2.29142e-13
-0.000239296
0.000239296
-1.56705e-14
0.000239296
0.000239296
-1.90433e-13
-0.000239296
0.000478591
-0.00052645
0.000143577
-4.78591e-05
-0.00777503
-0.00239296
-2.15235e-13
-0.00478591
0.00598239
-0.00143577
-0.000239296
0.000478591
2.48133e-13
-0.000239296
-0.000478591
0.000478591
-0.000239296
-0.000478591
0.000239296
-0.000239296
0.000478591
-0.000239296
4.78591e-05
7.17887e-05
-0.00144586
-0.00239296
-0.00239296
-1.55874e-13
-0.00143577
0.000478591
0.000239296
-2.64634e-14
0.000239296
0.000478591
0.000478591
-0.000717887
0.000478591
0.000239296
-0.000478591
0.000717887
-0.000239296
-0.000382873
0.000167507
-2.39296e-05
-0.00490714
0.00478591
2.94729e-14
0.00239296
0.00215366
-0.00119648
0.000239296
0.000239296
-0.000239296
-0.000239296
-0.000239296
0.000478591
-0.000478591
0.000478591
-1.65318e-13
-0.000478591
0.000239296
0.000167507
2.39296e-05
-4.78591e-05
0.00504609
-0.00239296
0.00478591
-0.00478591
0.00430732
-0.00119648
0.000239296
-0.000478591
0.000478591
-0.000478591
0.000239296
0.000239296
0.000239296
-6.53801e-14
-0.000239296
0.000239296
-0.000239296
0.000478591
-0.000311084
4.78591e-05
-0.000930277
-0.00239296
-0.00239296
2.97843e-14
0.000478591
2.65672e-14
-0.000478591
0.000478591
-0.000239296
0.000478591
2.25094e-13
-0.000478591
-0.000239296
-0.000239296
0.000239296
-0.000239296
-0.000239296
-0.000478591
0.000406803
-9.57183e-05
0.00473073
9.56833e-14
0.00239296
-3.93318e-14
-0.00215366
0.000478591
0.000717887
-0.000239296
0.000239296
-1.42643e-13
0.000239296
0.000239296
0.000239296
-0.000239296
-4.02658e-13
0.000239296
0.000478591
0.000239296
-0.000215366
7.17887e-05
0.00122113
-7.47201e-14
1.87838e-13
-0.00239296
-0.00167507
0.000957183
-0.000239296
-9.2985e-14
-0.000478591
0.000239296
-5.76487e-14
-0.000239296
0.000239296
2.45435e-13
5.12144e-14
-5.50801e-14
-0.000478591
-5.97761e-14
2.39296e-05
0
0.00381928
1.87319e-13
0.00478591
-0.00478591
0.00382873
-0.000478591
8.30224e-14
-0.000239296
0.000478591
-0.000239296
-2.24991e-13
-0.000478591
0.000239296
-5.59649e-13
0.000478591
-0.000478591
0.000478591
-1.75463e-13
9.57183e-05
-1.06269e-13
-0.0034089
0.00478591
-0.00478591
0.00239296
0.00119648
-0.000478591
-0.000239296
0.000478591
0.000239296
0.000239296
-0.000239296
0.000478591
-0.000478591
0.000478591
-0.000478591
2.94989e-13
-0.000239296
-1.58378e-13
-0.000263225
0.000119648
0.00139505
-0.00478591
0.00239296
-1.31435e-13
0.000717887
-0.000957183
0.000239296
-0.000478591
-5.71298e-14
-0.000478591
0.000478591
1.65552e-13
2.8954e-14
1.67991e-13
-0.000239296
0.000478591
-0.000478591
0.000478591
-0.000335014
4.78591e-05
0.00184898
1.08448e-13
0.00239296
-0.00478591
0.00454662
-0.000717887
-0.000478591
0.000239296
-0.000239296
-1.96452e-13
-2.65672e-14
-0.000239296
0.000239296
-0.000478591
0.000239296
0.000239296
-6.3097e-14
-3.32089e-15
-0.000167507
4.78591e-05
-0.00165673
-0.00239296
0.00239296
0.00239296
-0.00430732
0.00119648
0.000478591
-0.000239296
0.000478591
0.000239296
-5.64552e-14
2.6392e-14
0.000239296
7.2917e-14
0.000239296
-0.000239296
-0.000239296
0.000239296
0.000263225
-2.39296e-05
0.000701819
1.66045e-13
-1.1291e-13
0.00239296
-0.00287155
0.000717887
-0.000239296
0.000239296
-0.000478591
-2.65672e-14
0.000239296
-0.000239296
0.000239296
-0.000478591
0.000239296
1.06269e-13
0.000239296
-0.000239296
2.39296e-05
-7.17887e-05
0.00300618
-0.00686913
-0.00328331
-0.0165246
-0.0328555
-0.0346835
-0.00976062
0.0495459
0.214208
0.252699
-0.003343
-0.00310356
0.00284762
0.0161535
0.0484907
0.105828
0.187192
0.249212
0.00877019
-0.506232
-0.00113464
0.00565295
0.0138893
0.0411446
0.0748507
0.134813
0.159366
0.108824
-0.153258
-0.388623
0.00187039
0.00361827
0.0106418
0.0386693
0.0775452
0.0950605
0.0962143
-0.00153793
-0.143832
-0.21938
0.000291359
0.0102492
0.0238474
0.0328702
0.054645
0.0650364
0.0313104
-0.0447709
-0.0846635
-0.11213
0.00119757
0.0073313
0.0168473
0.0364417
0.032586
0.0315051
-0.000485919
-0.0402752
-0.0569277
-0.0560099
0.00843252
0.0056995
0.0141525
0.0166016
0.0222064
0.00877666
-0.017728
-0.0285878
-0.0248015
-0.0167095
-0.00104296
0.00724901
0.0115606
0.0137863
0.0144307
-0.00980939
-0.0140578
-0.0298878
-0.00476626
-0.00499231
0.00128768
0.00435862
0.00701083
0.0018125
-0.0079096
-0.00544077
-0.0233496
-0.0162665
0.00242934
0.00166019
0.00408854
0.0104272
0.00621781
0.00384929
-0.000284645
-0.0178209
-0.013236
-0.00483105
-0.000558949
0.0114106
0.00320003
-0.00209469
0.00127727
-0.00280241
-0.00704533
-0.0121999
-0.0111703
-0.00969533
0.00666871
0.0104938
0.00468798
-0.000150458
0.00563736
-0.00381841
-0.00534952
-0.0112643
-0.00775207
-0.00180569
0.00209038
0.010756
-0.00341053
0.00052622
0.00160935
-0.00125854
-0.00554707
-0.00639677
-0.00562606
-0.00146444
0.000974151
0.00677984
0.000315965
-0.00394988
0.00430803
-0.0105883
-0.00563748
-0.00698448
-0.00878657
-0.00708476
0.00741925
0.00913332
0.00239873
0.00367098
-0.00555195
0.0022655
-0.00260864
0.000556592
-0.00730825
-0.000642216
-0.000262687
0.00357913
-0.00523538
0.00599543
-0.00120759
-0.00272922
-0.00756302
-0.0113027
-6.05014e-05
-0.00647833
0.00616822
0.00363659
-0.00308998
-0.006854
-0.0037629
0.00064666
-0.00060968
0.0010492
-0.00901056
0.00477465
0.00413543
0.00164125
0.00529084
0.00417007
-0.0018618
-0.00814369
-0.00294382
0.000253891
0.000773996
-0.000997088
-0.00200536
0.00353927
-0.000108862
-0.00213469
0.000594143
0.00261714
0.00264547
-0.00458516
0.003327
-0.00263799
0.0057607
0.00228914
-0.00349268
-0.00204741
-0.00310415
-0.00546271
-0.00573034
-0.00427698
-0.00389479
-0.000867312
-0.00140217
-0.000302405
-0.190023
0.00114592
-0.00417271
0.000901985
-0.00116991
0.000923583
0.00647776
-0.00195017
-0.00446037
0.00754773
-0.0889712
0.00146994
0.000808645
-0.000261914
0.00225416
0.00495335
-0.0121436
0.00849465
0.00131289
0.000355622
0.0382342
0.00467593
-0.00107665
-0.00195197
0.00140258
0.0005132
0.00694858
-0.00382827
-0.00159983
-0.0017699
0.0637591
0.000877338
-0.00325017
0.00497474
-0.000762071
-0.000510038
0.000508192
-0.00144741
-0.0033748
0.00706245
0.0730392
-0.00404281
0.00655755
-0.00266943
0.00285889
0.00137931
0.00565393
-0.000692406
0.00400564
-0.00679395
0.0525007
0.00372648
-0.00218118
-0.00145411
-0.00386062
0.00414848
-0.0102801
0.00677383
-0.0106037
0.00459668
0.0293589
-0.000900737
-0.00237397
0.00562074
0.000871256
0.00236716
0.00140464
-0.00724309
0.0112214
-0.00670139
0.0103481
0.00391228
0.00173708
-0.0059193
0.00675663
-0.004941
0.00388673
0.00210084
0.00231195
-0.000331422
0.0108192
-0.00270266
-0.00331074
0.00754401
-0.00738409
0.00392957
-0.00283371
0.00247912
-0.0111287
0.00772816
-0.00521659
0.00753833
0.00310409
-0.000521977
0.00337113
0.00395646
-0.00658336
-0.00132284
0.0114859
-0.00859065
0.00244225
0.00217251
-0.00262323
0.00198806
-0.00456228
0.00172552
-0.00285013
9.15014e-05
-1.18639e-05
-0.000327903
-0.00365696
0.000569592
0.00117706
0.00343453
0.00287078
0.000588792
0.00279534
0.00515934
-0.00794152
0.00811231
-0.0112354
-0.000423461
0.00453296
-0.00321637
0.0030466
-0.00680104
0.00696735
-0.00485991
0.0118858
-0.00106488
-0.0181781
-0.000587788
0.00590304
-0.000162972
-0.00250694
0.00301564
0.00520973
-0.00178897
0.00104118
-0.00348394
-0.0289907
-0.00128574
-0.0029686
0.00179345
0.00764778
-0.0076175
0.00227133
-0.00163698
-0.00372396
0.00254466
-0.0461536
0.00582721
-0.00358209
-0.00236192
-0.00506535
0.00337791
0.00112337
0.00806544
0.00142506
0.00104231
-0.0598073
-0.0041297
0.00027783
0.00605854
0.00333719
0.000102162
0.00265445
-0.00563709
0.00701597
-0.00379128
-0.0850142
0.00763824
-0.00456112
-0.00680555
0.00887653
-0.00606367
-0.000854936
-0.00177246
-0.00406179
0.00402241
-0.0717357
-0.00331135
0.00300474
0.00386535
-0.00616904
-0.00170578
0.0051463
-0.000518467
0.00877815
0.00430491
-0.0213009
-0.00159026
0.00638103
-0.00219008
0.00556564
-0.00129675
0.00254016
-0.00217511
-0.00560228
-0.0063238
-19.9121
-0.00760992
0.00566036
-0.00352008
-0.00128258
0.000359249
-0.00448391
-0.00204644
-0.00431988
-0.00522823
-0.00707001
-0.00196999
-0.00375464
0.00156916
-0.0061585
-0.00142667
0.00163308
0.00677544
0.0046272
0.00356537
-19.7961
-0.00180592
0.00358395
-0.00183649
5.72004e-05
-0.00439294
-0.00364637
0.000470788
-0.00773745
-0.0011541
-0.00296235
-0.00332812
-0.0121522
-0.00253099
-0.00162297
0.00225272
0.00761303
-0.00156713
0.00959768
0.0127882
-19.5645
0.00603391
-0.00411412
-0.000539639
-0.00116008
-0.000339567
-0.000246656
-0.00611176
0.000933248
-0.0100707
-0.00592128
-0.0136806
-0.00302446
-0.0117727
-0.00283368
-0.00559991
-0.000763333
0.0175848
0.0130223
0.0204686
-19.2285
-0.00283409
0.00206006
0.00645853
-0.00448296
0.00681312
0.00275044
-0.00382762
-0.00100001
-0.000654674
-0.0100564
-0.00816022
-0.0123577
-0.00989409
-0.0160718
0.00201071
0.000271104
0.0127894
0.0270914
0.0222469
-18.805
0.00493141
0.0029918
0.00240443
0.0036178
0.0044634
0.00164206
0.00760602
-0.00329324
0.00849623
-0.00996981
-0.00292275
-0.00817322
-0.0201147
-0.0132671
-0.0122977
0.00285618
0.0197736
0.0375986
0.0131149
-18.3014
-0.000431917
0.0028593
0.00427497
0.0025378
0.00795132
0.0136505
0.0101228
0.0120836
0.00505525
0.011445
0.0101938
-0.00591088
-0.00412741
-0.0227572
-0.0195216
-0.0177119
0.00454601
0.043047
-0.00720231
-17.7467
0.00169665
0.00542995
0.00872019
0.0040199
0.00930022
0.00907283
0.0216073
0.0208391
0.0312267
0.0238165
0.030484
0.0360195
0.0116738
0.00361129
-0.0192645
-0.034829
-0.0337498
-0.00360834
-0.0599317
-17.1387
0.0039015
0.00514327
0.00474418
0.0039895
0.013062
0.0116007
0.0233079
0.0287591
0.0369601
0.05301
0.0590786
0.0672811
0.0739935
0.061948
0.0276993
-0.0139833
-0.0927097
-0.132321
-0.216685
-16.515
0.00551867
-0.000203576
0.00430652
0.00192826
0.0115119
0.0176953
0.017797
0.0276661
0.0436333
0.0518024
0.0814773
0.0957508
0.122035
0.142552
0.145717
0.107424
0.000369498
-0.326552
-0.577653
-15.8667
-0.000859857
0.00253409
0.0039832
0.00635839
0.00215083
0.00688705
0.0101854
0.00679614
0.00907533
0.0231608
0.0179978
0.0308332
0.0407647
0.0539255
0.0629843
0.0663978
0.0227057
-0.028028
-0.263226
-15.4652
0.00219656
-0.00456444
-0.00308712
0.00207798
-0.00332707
-0.00982649
-0.00506643
-0.0130536
-0.0174368
-0.0201065
-0.0238755
-0.0321901
-0.0286247
-0.0344931
-0.0295171
-0.014445
0.0175717
0.0850401
0.26442
-15.4729
1.64177e-13
0.00717887
-0.00239296
-0.00478591
3.73601e-13
-4.80077e-13
0.00239296
0.00239296
0.00239296
-0.00239296
-0.00239296
0.00478591
0.00239296
-0.00239296
0.00478591
-7.97015e-14
-0.00239296
-0.00239296
0.0700738
-15.4681
0.00239296
-0.00478591
0.00478591
-3.09051e-13
0.00239296
1.76423e-13
-0.00478591
0.00478591
-0.00478591
0.00239296
0.00239296
-0.00239296
-0.00239296
0.00478591
-0.00239296
2.6152e-14
0.00239296
-0.00239296
0.0435252
-15.4681
-0.00478591
0.00239296
-0.00239296
0.00239296
0.00239296
0.00239296
0.00239296
-0.00239296
-0.00239296
0.00478591
-0.00717887
0.00478591
0.00239296
6.64179e-14
-0.00239296
-0.00239296
-2.67332e-13
0.00239296
0.0381769
-15.4681
0.00239296
-0.00239296
0.00239296
-0.00478591
4.33377e-13
-0.00478591
-0.00239296
0.00239296
0.00239296
0.00239296
0.00239296
-0.00239296
0.00478591
-0.00478591
0.00239296
0.00239296
-0.00239296
0.00239296
0.0293772
-15.4681
0.00239296
3.88648e-13
-0.00239296
0.00478591
-2.65879e-13
0.00239296
-2.65464e-13
0.00239296
-1.10835e-13
-1.39062e-13
-0.00478591
-2.67747e-13
-0.00478591
1.8431e-13
0.00478591
-0.00239296
-0.00239296
0.00239296
0.0152739
-15.4729
2.6152e-13
-0.00239296
-0.00239296
0.00478591
-0.00478591
0.00239296
1.56082e-13
-0.00239296
-0.00239296
-0.00478591
0.00478591
1.73932e-13
0.00478591
-1.50893e-13
-0.00478591
-0.00239296
-0.00239296
0.00239296
0.0153338
-15.4657
-0.00239296
0.00239296
0.00239296
-0.00239296
0.00239296
-0.00239296
-0.00239296
-0.00239296
0.00478591
0.00478591
-0.00239296
-0.00239296
-0.00239296
-0.00239296
0.00478591
0.00478591
-1.30345e-13
-0.00478591
0.0108723
-15.4705
-5.19097e-13
0.00478591
-0.00239296
-0.00478591
0.00478591
-0.00239296
0.00239296
0.00478591
-0.00239296
-0.00478591
0.00478591
3.28769e-13
0.00478591
-0.00239296
-8.15695e-14
-0.00478591
0.00478591
3.32089e-14
0.00862469
-15.4705
-0.00239296
-0.00478591
0.00478591
0.00239296
-0.00239296
-4.20923e-13
-1.14986e-13
-0.00478591
9.43342e-14
-1.11873e-13
-0.00239296
-0.00239296
1.6646e-13
-5.64552e-14
1.42798e-13
-0.00239296
-0.00239296
0.00239296
-0.00085773
-15.4681
-2.15962e-13
0.00239296
1.5494e-13
2.75427e-13
-0.00239296
0.00239296
-0.00478591
0.00478591
2.11396e-13
0.00478591
-0.00239296
-0.00239296
0.00239296
-0.00239296
1.72894e-13
0.00239296
-0.00478591
0.00478591
4.94777e-05
-15.4681
0.00239296
-1.64696e-13
-0.00239296
-0.00239296
-2.66813e-13
0.00239296
0.00239296
1.03882e-13
-0.00239296
0.00239296
1.74036e-13
0.00239296
0.00239296
0.00239296
8.33337e-14
-0.00239296
4.33792e-14
-0.00478591
0.00234767
-15.4729
0.00239296
-0.00239296
0.00239296
0.00239296
7.40352e-13
-0.00239296
-0.00239296
-0.00239296
-1.03155e-13
-0.00239296
-0.00239296
0.00239296
-0.00478591
-0.00239296
0.00239296
0.00239296
0.00239296
-1.86074e-13
-0.00194782
-15.4705
0.00239296
0.00478591
-0.00239296
-0.00478591
0.00478591
-0.00478591
0.00478591
0.00478591
-0.00478591
0.00478591
-0.00239296
-0.00239296
0.00239296
0.00239296
-0.00717887
0.00239296
-0.00239296
-0.00239296
-0.00175293
-15.4657
-0.00478591
-0.00478591
-0.00239296
0.00478591
-0.00239296
0.00239296
0.00239296
-0.00478591
1.1784e-13
0.00239296
0.00239296
-0.00239296
0.00239296
-8.32299e-14
0.00239296
0.00239296
-0.00239296
7.11917e-14
-0.00272662
-15.4729
0.00239296
0.00478591
3.52845e-15
0.00239296
-0.00478591
0.00239296
-0.00478591
0.00239296
-1.22043e-13
-0.00478591
-1.51464e-13
-1.1042e-13
0.00478591
-0.00478591
0.00239296
-0.00478591
0.00239296
3.51807e-14
-0.0030043
-15.4657
3.75624e-13
-6.16182e-14
-0.00478591
0.00239296
0.00239296
-0.00239296
0.00239296
-1.63243e-13
-0.00239296
0.00717887
-0.00478591
3.19013e-13
-0.00478591
3.99338e-13
-0.00239296
-1.8514e-13
9.36077e-14
0.00239296
-0.00306478
-15.4729
-2.65308e-13
-1.02948e-13
0.00239296
-0.00478591
0.00239296
-1.13481e-13
0.00239296
-0.00478591
-5.18111e-14
-0.00239296
0.00478591
-0.00239296
0.00717887
-0.00478591
0.00478591
-0.00478591
0.00478591
-0.00478591
-0.00313534
-15.4657
0.00239296
-0.00478591
-0.00239296
0.00239296
6.0308e-14
5.00858e-14
-2.15287e-13
0.00239296
0.00239296
-0.00239296
-0.00239296
0.00239296
-0.00478591
9.33353e-14
1.03129e-14
0.00478591
-0.00717887
0.00239296
0.0035392
-15.4729
0.00239296
0.00239296
-3.75261e-13
-0.00239296
-4.98134e-14
5.31343e-14
-5.31343e-14
1.0959e-13
-0.00239296
0.00239296
1.66045e-13
0.00239296
-0.00239296
0.00239296
-0.00478591
0.00239296
0.00239296
0
-0.00228042
-0.250258
-0.197841
-0.0490236
0.0248259
0.0330571
0.0360403
0.0231998
0.0171998
0.00294143
0.00405921
0.508708
-0.0188838
-0.243706
-0.187861
-0.102145
-0.0527483
-0.0192176
-0.010504
-0.000216466
0.000316798
0.402506
0.146276
-0.114921
-0.172739
-0.127859
-0.0702834
-0.0377541
-0.0053631
-0.00075677
0.004652
0.224945
0.133833
-0.00841206
-0.0942948
-0.103336
-0.0730338
-0.0382584
-0.0212377
-0.000843425
-0.00373357
0.114487
0.0838293
0.0392893
-0.0408945
-0.0669498
-0.0638166
-0.0342368
-0.0112327
-0.000766259
-0.00352398
0.0559827
0.0475509
0.0393415
0.00280744
-0.0302242
-0.0397583
-0.0290518
-0.0192553
-0.00861455
0.00160446
0.0223996
0.0133115
0.030634
0.00957697
-0.00850971
-0.0209463
-0.0258081
-0.016079
-0.0087492
-0.00541888
-0.0002263
0.0121287
0.0172673
0.0159407
0.00573625
-0.00506833
-0.00652496
-0.00709004
-0.00204666
0.0026267
-0.0092745
-0.00505459
0.0112588
0.0136328
0.0075351
-0.000940638
-0.0114503
-0.0100459
-0.00856803
0.000591488
-0.01025
-0.00258751
0.00730643
0.0175393
0.00554934
0.00878825
0.00216468
-0.00296629
-0.0064458
-0.00372385
-0.0174812
-0.00581106
0.0078219
0.00625597
0.0119682
0.000640095
-0.00393422
-0.00550015
0.000576199
-0.00254377
-0.00926067
-0.00706545
-0.00104462
0.0101792
0.00983255
0.0109275
0.00309775
0.00394826
-0.00480382
0.000185142
-0.01495
-0.00200475
0.00558155
0.00145817
0.0112104
0.00054411
0.00278084
-0.00308356
0.000633097
0.0026912
-0.00671386
-0.00444356
-7.61627e-05
0.0110563
0.00174758
0.00677983
0.006706
-0.00156625
-0.00443177
-0.000873388
-0.00820528
-0.000114264
-0.00225443
0.00271825
0.00694711
0.00588925
0.00384569
-0.000891406
-0.000232108
-0.000713553
0.000156994
-0.00731223
-0.00067174
0.00119553
0.00504208
0.00409152
-0.000227731
-0.00131334
0.00341474
0.00519356
-0.0040154
0.00146529
-0.00283007
0.0037939
-0.00341529
0.00439657
0.0041166
-0.00253139
0.00662495
-0.00483812
-0.00223209
-0.00138897
0.00379546
-0.00216992
0.00649661
-0.00189845
-0.0019857
0.00346457
-0.00821467
0.000701551
-0.00367371
-0.000880631
-0.00122659
0.00598623
-0.000926716
0.00548779
0.00421619
-0.000917158
0.00793494
0.000163873
-0.00343823
0.000550501
0.00306137
-0.00342197
0.00441676
0.00239648
9.27241e-06
0.0072555
-0.00180343
-0.000449389
)
;

boundaryField
{
    down
    {
        type            symmetryPlane;
    }
    right
    {
        type            extrapolatedCalculated;
        value           nonuniform List<scalar> 
30
(
0.000462082
0.000194068
-0.000460262
-0.000939243
-0.00106114
-0.000719922
-9.05737e-05
0.0002033
0.000216649
-0.000112027
-1.5839e-05
4.78591e-05
-1.02948e-13
4.78591e-05
-5.64552e-14
2.39296e-05
-4.78591e-05
7.17887e-05
-2.39296e-05
-4.78591e-05
4.78591e-05
-9.57183e-05
7.17887e-05
0
-1.06269e-13
0.000119648
4.78591e-05
4.78591e-05
-2.39296e-05
-7.17887e-05
)
;
    }
    up
    {
        type            symmetryPlane;
    }
    left
    {
        type            extrapolatedCalculated;
        value           nonuniform List<scalar> 
30
(
-19.9121
-19.7961
-19.5645
-19.2285
-18.805
-18.3014
-17.7467
-17.1387
-16.515
-15.8667
-15.4652
-15.4729
-15.4681
-15.4681
-15.4681
-15.4681
-15.4729
-15.4657
-15.4705
-15.4705
-15.4681
-15.4681
-15.4729
-15.4705
-15.4657
-15.4729
-15.4657
-15.4729
-15.4657
-15.4729
)
;
    }
    cylinder
    {
        type            symmetry;
    }
    defaultFaces
    {
        type            empty;
    }
}


// ************************************************************************* //
