/*--------------------------------*- C++ -*----------------------------------*\
| =========                 |                                                 |
| \\      /  F ield         | OpenFOAM: The Open Source CFD Toolbox           |
|  \\    /   O peration     | Version:  2206                                  |
|   \\  /    A nd           | Website:  www.openfoam.com                      |
|    \\/     M anipulation  |                                                 |
\*---------------------------------------------------------------------------*/
FoamFile
{
    version     2.0;
    format      ascii;
    arch        "LSB;label=32;scalar=64";
    class       volScalarField;
    location    "0";
    object      U_div;
}
// * * * * * * * * * * * * * * * * * * * * * * * * * * * * * * * * * * * * * //

dimensions      [0 0 -1 0 0 0 0];

internalField   nonuniform List<scalar> 
2000
(
-0.071329
0.0222526
0.0146448
0.00979359
0.00669477
0.00461553
0.00335282
0.00316158
0.00589184
0.0941607
-0.0651669
0.0203116
0.0132762
0.0089126
0.00599713
0.00412665
0.00297488
0.00238954
0.00271232
0.0855302
-0.0585289
0.0183107
0.0119305
0.00795474
0.00535736
0.00342654
0.0019583
0.000182718
-0.00295795
0.0745215
-0.0515573
0.0161725
0.010522
0.00703484
0.00492005
0.0033969
0.00244087
0.00196728
0.0021178
0.0664634
-0.0443565
0.0139482
0.00910747
0.00622811
0.00436636
0.00329502
0.00266867
0.0025113
0.00282304
0.0517333
-0.0365947
0.0115828
0.0075995
0.00522237
0.00377681
0.00289897
0.00240778
0.0021646
0.0021377
0.0395842
-0.0287634
0.0092462
0.00614158
0.0041489
0.00295334
0.002281
0.0017768
0.00154819
0.0013336
0.0295288
-0.0207559
0.00664551
0.00445752
0.00310596
0.0021322
0.00160544
0.00115013
0.000899348
0.000692221
0.0205233
-0.0125331
0.00417044
0.00268749
0.00182334
0.00129152
0.000816942
0.000649948
0.00036423
0.000157475
0.0120902
-0.00424792
0.00148339
0.00106728
0.000654743
0.00047798
0.000190298
5.51687e-05
-0.000143901
-0.000313726
0.00366518
-0.104985
0.0309369
0.0203416
0.0137856
0.0096197
0.00693978
0.00520789
0.00409337
0.00342446
-0.00366336
-0.104191
0.030817
0.0201886
0.0136513
0.00947965
0.00677073
0.00498153
0.00377105
0.00288141
-0.00477403
-0.102926
0.0304828
0.0199158
0.013385
0.00923177
0.00650262
0.00469458
0.00350621
0.00278682
-0.00593178
-0.101068
0.0299601
0.019548
0.0130645
0.00889958
0.00613787
0.00424177
0.00294864
0.00214025
-0.0090566
-0.0985319
0.0293334
0.0191047
0.0127598
0.00863701
0.00580359
0.00372133
0.00214187
0.000952569
-0.0150816
-0.0953829
0.0286115
0.0187022
0.0125728
0.00856643
0.00575427
0.00353154
0.00149895
-0.000587822
-0.0268155
-0.0916359
0.0277002
0.0182663
0.0124953
0.00880069
0.00630701
0.00438633
0.00238287
-0.000534838
-0.0472475
-0.0872825
0.0266575
0.0176523
0.0123072
0.00910743
0.00730997
0.00659544
0.00667382
0.00680014
-0.0691496
-0.0822994
0.0254766
0.0168268
0.011754
0.00877301
0.00732208
0.00753942
0.0106952
0.0204827
-0.055071
-0.0769958
0.0240125
0.0157602
0.0107243
0.00750886
0.005101
0.00239113
-0.00254465
-0.014291
-0.0747758
-0.00498707
0.00361449
0.00290207
0.00236034
0.00192915
0.00155676
0.00121007
0.000903663
0.000647455
0.000457259
0.000332986
0.00025215
0.000215899
0.000198098
0.000188647
0.000187421
0.000165423
0.000142429
0.000110535
0.000291345
-0.00394918
0.00330796
0.00306352
0.00258567
0.00213116
0.00169448
0.00129099
0.000945964
0.00068156
0.000518992
0.000413256
0.000359643
0.000337137
0.000305687
0.000290308
0.000267814
0.000232294
0.00019143
0.000144925
0.000329334
-0.000588254
0.00302493
0.00304566
0.00247496
0.00193725
0.0014099
0.000977932
0.000685889
0.000519134
0.000449052
0.00044293
0.000460582
0.000447622
0.000423628
0.000402038
0.000346019
0.000289712
0.000229202
0.00016163
0.000394559
0.00485089
0.00260965
0.00327048
0.00240456
0.00164336
0.00101862
0.000651141
0.000541607
0.000576211
0.000655932
0.00070903
0.000707534
0.000676338
0.000600541
0.00050069
0.000407157
0.000310116
0.000227995
0.000157351
0.000511341
0.0140815
0.00203393
0.00333303
0.00184974
0.000893091
0.000500017
0.000567495
0.00082926
0.00106539
0.00117348
0.0011465
0.0010316
0.000861628
0.000675242
0.00050188
0.000351705
0.000235897
0.000162424
0.00010579
0.000668452
0.0291013
0.00127649
0.00223604
0.00023467
6.64886e-05
0.000709484
0.00146946
0.00192827
0.00198981
0.00179327
0.0014661
0.00110215
0.000783772
0.000523392
0.000324191
0.000179985
8.77113e-05
2.77621e-05
-9.00602e-06
0.000804487
0.0504995
-0.000930583
-0.00211623
-0.00128751
0.00130065
0.00300482
0.00351002
0.00316035
0.00245104
0.00172148
0.00110514
0.000647623
0.000345732
0.000148823
2.23576e-05
-4.51102e-05
-6.42214e-05
-8.10502e-05
-9.6693e-05
0.000857619
0.069299
-0.0103721
-0.00787579
0.00240266
0.00583605
0.00534004
0.00366487
0.00209872
0.00099266
0.000325865
-5.55475e-06
-0.000155265
-0.000205828
-0.000196922
-0.000168103
-0.000144023
-0.000112577
-9.41034e-05
-0.000101071
0.000784348
0.0879898
-0.0021944
-0.00354149
-0.00283545
-0.00698367
-0.00846687
-0.00790008
-0.00650619
-0.00495622
-0.00356627
-0.00243518
-0.00157622
-0.000944886
-0.000495595
-0.000206206
-4.8814e-05
3.52575e-05
4.42207e-05
1.00082e-07
0.000575277
0.185544
0.109045
0.0902732
0.0743663
0.0597708
0.0468914
0.036559
0.0285902
0.0224974
0.0178135
0.014186
0.011333
0.00906227
0.00720966
0.00567344
0.00436598
0.0032231
0.00221008
0.00130301
0.000705613
-0.166868
-0.0934316
-0.0847545
-0.0708528
-0.0527924
-0.0383871
-0.0282677
-0.0212844
-0.0163864
-0.0128732
-0.0102824
-0.00831502
-0.00677505
-0.00552274
-0.00445131
-0.00350045
-0.00262335
-0.00180222
-0.00102904
-0.000255082
-0.0478894
-0.00783514
-0.00184857
-0.00433137
-0.00523632
-0.00462529
-0.00361979
-0.00270556
-0.00198083
-0.0014425
-0.00105036
-0.000754896
-0.000553797
-0.000396785
-0.000280766
-0.000192591
-0.000127621
-8.19867e-05
-4.87279e-05
-1.36129e-05
-0.00917915
-0.00793569
-0.00406066
-0.00374354
-0.00385956
-0.00353471
-0.00300102
-0.0024217
-0.00188337
-0.00141543
-0.00105268
-0.000821414
-0.000619541
-0.000455567
-0.000338775
-0.000247507
-0.000167067
-0.000110605
-6.36557e-05
-1.64747e-05
0.004491
-0.00317118
-0.00276898
-0.00271484
-0.00282313
-0.00273805
-0.00243021
-0.00202956
-0.00166526
-0.00128858
-0.00100859
-0.000828375
-0.000655893
-0.000465622
-0.000396011
-0.000299329
-0.000174028
-0.000129168
-7.21637e-05
-2.73805e-05
0.00499731
-9.28151e-05
-0.00119113
-0.00167067
-0.00187177
-0.00200945
-0.00185785
-0.00159333
-0.00137212
-0.00119267
-0.000968371
-0.000801304
-0.000667495
-0.000485732
-0.000361205
-0.000273805
-0.000172481
-0.000129941
-0.000122207
-3.23306e-05
0.0030277
0.00102097
-0.000232038
-0.000866274
-0.00121742
-0.00131024
-0.00132648
-0.00133344
-0.00118494
-0.000982293
-0.000863954
-0.000660534
-0.000568493
-0.000525952
-0.000363526
-0.00026839
-0.000173255
-0.000142316
-6.79871e-05
1.13699e-05
0.00161544
0.00126383
0.00034883
-0.00034651
-0.00065512
-0.000910361
-0.00102406
-0.000913455
-0.000891025
-0.000836883
-0.000687605
-0.000636557
-0.000571586
-0.000374354
-0.000295461
-0.000262976
-0.000186404
-0.000195685
-9.60636e-05
2.62976e-06
0.00112085
0.00111378
0.000497334
8.81744e-05
-0.00028618
-0.000568493
-0.000710036
-0.000706942
-0.000700754
-0.000628049
-0.000563852
-0.000545289
-0.00047413
-0.000334134
-0.000258335
-0.000300102
-0.000191818
-0.000123753
-4.58661e-05
2.04967e-05
0.00105789
0.00104649
0.00059247
0.000194138
-8.66274e-05
-0.00028618
-0.000459435
-0.000500428
-0.000499655
-0.000485732
-0.000468716
-0.00042927
-0.000368167
-0.000303969
-0.000257562
-0.000175575
-0.000157012
-0.000139996
-6.11806e-05
-8.81744e-06
0.00107024
0.000973785
0.000633463
0.000256788
3.17118e-05
-0.000107511
-0.00018563
-0.000333361
-0.000389823
-0.000342642
-0.000320212
-0.000332587
-0.000341869
-0.000253695
-0.000214248
-0.000143863
-0.000119113
-0.000139687
-5.00428e-05
-3.24853e-06
0.00129197
0.00086318
0.000630369
0.000322532
0.00014309
1.0055e-05
-0.000150825
-0.000181763
-0.000226624
-0.000255242
-0.000213475
-0.000236679
-0.000259109
-0.000232811
-0.000126074
-0.000143863
-0.000112925
-1.70934e-05
-7.34786e-05
-3.50377e-05
0.00142349
0.000731692
0.000545289
0.000413801
0.000206514
7.88928e-05
6.26502e-05
-1.77896e-05
-0.000155465
-0.000161653
-0.000195685
-0.000220436
-0.000147731
-0.000139996
-0.00014309
-0.000114472
-9.4362e-05
-5.24405e-05
-3.68167e-05
-2.09607e-05
0.00152095
0.000723184
0.000559984
0.000422309
0.000266843
0.000189498
0.000105964
-2.78445e-05
-6.26502e-05
-0.000116792
-0.000110605
-7.03848e-05
-0.0001253
-0.000112152
-0.000114472
-7.5799e-05
-2.11928e-05
-6.1258e-05
-7.76553e-05
-3.27947e-05
0.00148783
0.000636557
0.000547609
0.000448606
0.000324853
0.000228944
0.000121433
1.54692e-05
-2.8618e-05
2.16569e-05
-5.95564e-05
-0.000136129
-9.4362e-05
-6.7291e-05
-5.18218e-05
-5.31366e-05
-8.27601e-06
-1.6088e-05
-2.53695e-05
1.2066e-05
0.00150999
0.00061258
0.000543742
0.000423082
0.000352697
0.000201873
0.000136129
0.000150825
6.41971e-05
-1.8563e-05
-1.31488e-05
-1.23753e-05
-4.7181e-05
-1.31488e-05
-5.05069e-05
-7.67272e-05
-1.98779e-05
3.03969e-05
-1.98779e-05
-3.61747e-05
0.00135234
0.000658987
0.000591696
0.000422309
0.000305516
0.000242866
0.000225077
0.000155465
7.50255e-05
7.73459e-06
3.63526e-05
7.11582e-05
7.73459e-06
-4.36231e-05
-5.95564e-05
-2.8386e-05
-2.54468e-05
-5.48383e-05
2.91594e-05
5.86824e-05
0.00133101
0.000570039
0.00050971
0.000444739
0.000359659
0.000314024
0.000209607
0.000169388
0.000150051
1.54692e-05
1.54692e-06
9.85387e-05
4.84185e-05
-3.19439e-05
-3.77448e-05
-2.97782e-05
8.50805e-07
-2.12701e-05
-2.22756e-05
-9.08041e-06
0.0012483
0.000616138
0.000509014
0.000410629
0.000295616
0.00028997
0.000284865
0.000162891
0.00010666
0.000132339
8.80197e-05
3.99878e-05
4.25403e-05
6.03298e-05
-3.04743e-05
-5.40648e-05
2.47507e-06
-9.04947e-06
-1.05809e-05
-4.44739e-06
0.00117588
0.000618149
0.000492384
0.00039021
0.000429657
0.000343648
0.00024596
0.000169697
0.000138604
8.94119e-05
0.000101401
8.62407e-05
2.18889e-05
2.94688e-05
-1.26847e-05
-3.54244e-06
-4.7181e-06
-6.96113e-06
-6.31916e-06
-2.55474e-06
0.0011066
0.000554725
0.000523864
0.000456032
0.000380001
0.000330112
0.000263518
0.000209607
0.000113621
6.52026e-05
0.000143167
0.0001055
7.81194e-06
4.9192e-05
3.16345e-05
-1.96613e-05
-1.04417e-05
-7.50255e-06
-5.22085e-06
-1.93906e-06
-0.00619513
-0.0177706
-0.0297818
-0.0426945
-0.0572109
-0.0735941
-0.0907137
-0.101105
-0.0961881
0.0219913
-8.85027e-05
0.000778894
0.00197198
0.00384064
0.00658332
0.00994495
0.0116397
0.0114354
0.000229612
0.063812
2.50745e-06
0.000831691
0.00172849
0.00244185
0.00255075
0.00127745
-0.000843724
0.00613518
0.00561816
0.0469262
-9.50709e-05
0.000560862
0.000971041
0.000825677
-0.000176497
-0.001415
0.000328168
0.00829773
0.00178927
0.0276446
-0.000275656
1.08566e-05
4.19041e-05
-0.0004058
-0.000930657
-0.000199308
0.00337818
0.00612128
-0.00118486
0.0200577
-0.000394251
-0.000349901
-0.000466179
-0.000645798
-0.000252431
0.00141134
0.0037399
0.00261478
-0.00174632
0.0170893
-0.000394361
-0.00053466
-0.000567194
-0.000299466
0.000567967
0.00202155
0.00262289
0.000464815
-0.00131387
0.0149444
-0.000311633
-0.000417651
-0.000324359
0.000118507
0.00100198
0.00179816
0.0014416
-0.000460934
-0.00069043
0.0128306
-0.000219721
-0.00027196
-8.97652e-05
0.000425507
0.00107408
0.00134293
0.000668109
-0.000686725
-0.000195734
0.0106224
-0.000100558
-8.27836e-05
0.000102211
0.000545761
0.000971093
0.000956558
0.000195021
-0.000605737
0.000154075
0.00866057
-5.95491e-05
8.19608e-05
0.000329326
0.000582809
0.000750732
0.000603687
5.45239e-05
-0.000443761
0.000241485
0.00700751
3.68216e-05
0.000179402
0.000401572
0.000623727
0.000584805
0.0003378
-4.8095e-05
-0.000296813
0.000401985
0.00563988
0.000136277
0.000242009
0.000430375
0.000520578
0.000403977
0.000144013
-4.45285e-05
-8.09759e-05
0.000375049
0.00455021
0.000120484
0.000248718
0.000433102
0.000446827
0.000313362
8.74492e-05
-2.85954e-05
1.3874e-05
0.000492326
0.00377069
0.000211818
0.000292103
0.000341215
0.000328192
0.000217206
8.99659e-05
0.000101117
0.000193919
0.000374706
0.00310438
0.000210675
0.000303777
0.000379522
0.000225187
0.000131379
0.000114336
0.000151994
0.000193912
0.000412148
0.00267424
0.000185264
0.000277481
0.000296632
0.000239437
0.000138094
9.8621e-05
0.000151286
0.000202999
0.00042703
0.00238033
0.000198727
0.000263684
0.000248516
0.000153443
0.000122868
0.000132417
0.000134108
0.000274615
0.000510144
0.00211649
0.000243548
0.000298987
0.000235429
0.000129524
3.68144e-05
1.63301e-05
0.000159946
0.000318401
0.000484713
0.00202706
0.000289373
0.000418032
0.000420486
0.000331476
0.000209096
0.000231267
0.00023655
0.000162853
0.000196383
0.00149372
-0.095385
-0.00615677
-0.00332113
-0.00350273
-0.00483676
-0.00692743
-0.0100244
-0.0147091
-0.0223119
0.0711439
-0.086439
-0.00253929
-0.00245766
-0.00311411
-0.0043237
-0.00627427
-0.00913308
-0.0134226
-0.0202905
0.0650983
-0.0763421
0.00225611
-0.000590717
-0.00223416
-0.00376546
-0.0056452
-0.00809718
-0.0119302
-0.0180203
0.0584507
-0.067748
-0.00300215
-0.0026048
-0.00293651
-0.00386192
-0.00512723
-0.00721844
-0.0105568
-0.0159106
0.0515028
-0.0527922
-0.00376456
-0.00329858
-0.00322883
-0.00365987
-0.00466542
-0.00641428
-0.00914208
-0.0136459
0.0440769
-0.040658
-0.00308478
-0.00295837
-0.00292332
-0.00332307
-0.00406724
-0.00543895
-0.00755671
-0.011326
0.0362971
-0.0305356
-0.00230895
-0.00236403
-0.00242528
-0.00271696
-0.00330643
-0.00429161
-0.00592558
-0.00885806
0.0285568
-0.021538
-0.00167858
-0.00169672
-0.00172792
-0.00192141
-0.00243793
-0.00297664
-0.00412793
-0.00617766
0.0204829
-0.0131376
-0.0012437
-0.00117332
-0.0011268
-0.00126823
-0.0014267
-0.00175139
-0.00247216
-0.0036095
0.0121597
-0.00482427
-0.000799549
-0.000675855
-0.000616099
-0.000519346
-0.000433295
-0.000517649
-0.00068806
-0.00112801
0.00389955
0.00279919
-0.00420695
-0.00480261
-0.00583175
-0.00762273
-0.0103706
-0.0146392
-0.0213697
-0.0322689
0.104423
0.00365148
-0.00368062
-0.00450123
-0.00567763
-0.0075523
-0.0103752
-0.0147211
-0.0215346
-0.0323576
0.1039
0.00442919
-0.00347746
-0.00416112
-0.00533302
-0.00724214
-0.0101409
-0.0144968
-0.0212794
-0.0319842
0.102656
0.00721506
-0.00268456
-0.00345583
-0.00475391
-0.00676775
-0.00971256
-0.014081
-0.0207933
-0.0313241
0.100789
0.0130132
-0.00129103
-0.00249321
-0.00412563
-0.00633075
-0.00933542
-0.0136794
-0.020263
-0.0305516
0.0982816
0.0247373
0.000421721
-0.00172407
-0.00383476
-0.00616447
-0.0091311
-0.0133419
-0.0196888
-0.0296484
0.0951155
0.0454935
0.000506332
-0.00252539
-0.0046008
-0.00663443
-0.00924395
-0.0130857
-0.0190591
-0.0285946
0.0913794
0.06791
-0.0070164
-0.00692778
-0.00684735
-0.00759634
-0.00943975
-0.0127848
-0.0183285
-0.0273282
0.0870777
0.05319
-0.02134
-0.0112086
-0.00787393
-0.00764209
-0.00910729
-0.0122018
-0.0173846
-0.025809
0.0823181
0.0736567
0.0141751
0.00238777
-0.00251533
-0.00532555
-0.00777881
-0.0111356
-0.0160963
-0.0240498
0.077101
0.0203961
-0.0234925
-0.000614032
-0.000584713
-0.000558582
-0.000545515
-0.000535559
-0.000533187
-0.000562572
-0.000641678
-0.000769517
-0.000969261
-0.00124038
-0.00155934
-0.0019346
-0.00235266
-0.00281901
-0.00335393
-0.00412899
0.00486609
0.0189843
-0.0221254
-0.000656178
-0.000643992
-0.000648827
-0.0006543
-0.000650571
-0.000661131
-0.000681417
-0.000723141
-0.000836866
-0.00102411
-0.00129275
-0.00167123
-0.00212079
-0.00260638
-0.00311135
-0.00361291
-0.00380455
0.00406323
0.0163842
-0.019313
-0.000609317
-0.000644255
-0.000691507
-0.000728792
-0.000747331
-0.000760797
-0.000763321
-0.000754408
-0.000764284
-0.000830325
-0.0010037
-0.0013316
-0.00181347
-0.00239306
-0.00299707
-0.00362388
-0.00347616
0.000976377
0.0126526
-0.0152732
-0.000498887
-0.00058542
-0.000689737
-0.000783229
-0.000886539
-0.000962105
-0.0010046
-0.000988297
-0.00092053
-0.000850117
-0.000823679
-0.000946762
-0.00133854
-0.00200457
-0.00283854
-0.00381346
-0.00296494
-0.0040715
0.00800408
-0.0101732
-0.00031594
-0.000426282
-0.000582798
-0.000747017
-0.000930742
-0.00113091
-0.00129714
-0.00139321
-0.00141718
-0.00130046
-0.001052
-0.000790705
-0.000740879
-0.00116275
-0.0021683
-0.00381708
-0.00232655
-0.0129903
0.00260147
-0.0042844
-6.22302e-05
-0.000178484
-0.000361919
-0.000559153
-0.000793343
-0.00105097
-0.001358
-0.00169306
-0.0020029
-0.00218673
-0.00210717
-0.00166517
-0.00091574
-0.000256157
-0.000425156
-0.00259154
-0.00154999
-0.0278411
-0.00354671
0.00225621
0.000251301
2.33742e-05
-0.00018504
-0.000336497
-0.000481277
-0.000663542
-0.000932906
-0.00134248
-0.001911
-0.00261321
-0.00329774
-0.00364499
-0.00318435
-0.00150456
0.00113415
0.0019382
0.000621594
-0.0494138
-0.0107301
0.0098459
0.00060916
-5.48603e-05
-0.000317178
-0.000350282
-0.000284157
-0.000222311
-0.000202556
-0.000275565
-0.000551079
-0.00115551
-0.00220783
-0.00375037
-0.00543798
-0.00599485
-0.00256255
0.0078735
0.0100532
-0.0685191
-0.0210125
0.0218288
0.000356744
-0.000832915
-0.000758558
-0.00041575
2.15733e-05
0.000565064
0.00126599
0.00217722
0.00333739
0.00474898
0.00633012
0.00777825
0.0084106
0.00700697
0.00293575
0.00395372
0.0020023
-0.0881725
-0.0160191
0.0273096
-0.00616858
-0.00317242
-0.00273173
-0.00331403
-0.00446239
-0.00610761
-0.00828107
-0.0111129
-0.014797
-0.0195814
-0.0258355
-0.0340164
-0.0446214
-0.0578127
-0.0728332
-0.0888688
-0.107428
-0.182305
-0.0193625
0.0203801
-0.00257393
-0.00100236
6.53696e-05
0.00103025
0.0020927
0.00336233
0.00494882
0.00699173
0.00969839
0.0133616
0.0184223
0.0256268
0.0360232
0.0507876
0.0692645
0.0834616
0.0916315
0.162962
-0.0123181
0.00966669
0.00229021
0.000437778
3.55791e-05
6.18767e-06
0.000106737
0.000262976
0.000477224
0.000776553
0.00117643
0.00172481
0.0024364
0.00335681
0.00446286
0.00508936
0.00412254
0.001632
0.007781
0.0456736
-0.00393304
0.00190967
0.00134118
0.000647385
0.000387503
0.0002885
0.000307837
0.000487279
0.000644292
0.00086318
0.00124836
0.00174028
0.0022585
0.00279992
0.00337228
0.00372034
0.00359659
0.00394464
0.00781194
0.00645486
-0.00136284
0.00040916
0.000727052
0.000525952
0.000442419
0.000440098
0.000510483
0.000644292
0.000708489
0.000928151
0.00126847
0.00158482
0.00194138
0.00229717
0.00254468
0.00269937
0.00275351
0.00269937
0.00295461
-0.00665712
-0.000409933
0.000193365
0.000466396
0.000427723
0.000482639
0.000583188
0.000559211
0.000624182
0.000756443
0.000934339
0.00121897
0.00137753
0.00158946
0.00187951
0.00193365
0.00184083
0.00168614
0.00116019
-4.64076e-05
-0.00666668
1.54692e-06
0.000206514
0.000341869
0.00044938
0.000533687
0.000520538
0.000573907
0.000669042
0.000734013
0.000884064
0.00103721
0.00116019
0.00129245
0.00143477
0.0014309
0.00117566
0.000819867
0.000201099
-0.000959089
-0.00414282
0.000194912
0.000194912
0.000381315
0.000403746
0.000432364
0.000529046
0.00052982
0.000647385
0.000761857
0.000809812
0.000861634
0.00098616
0.0010434
0.00102483
0.000942073
0.000746388
0.000409933
-0.000239772
-0.0012066
-0.00237896
0.00022353
0.000293141
0.000344189
0.000417668
0.00040916
0.000466396
0.000588602
0.000538328
0.000613353
0.000716997
0.000751802
0.000788928
0.000779647
0.00073556
0.000616447
0.000450927
6.41971e-05
-0.000435458
-0.000985387
-0.00149857
0.000252148
0.00032872
0.000358885
0.00035115
0.00039137
0.00041148
0.000504295
0.000530593
0.000507389
0.000607939
0.000631916
0.000631916
0.000542968
0.000518218
0.000412254
0.000198779
-1.54692e-06
-0.000438551
-0.000806718
-0.0011774
0.000279219
0.000330267
0.000329494
0.000314024
0.000390597
0.000436231
0.000406066
0.000415348
0.000427723
0.000496561
0.000535234
0.000482639
0.000392917
0.000378995
0.000236679
8.81744e-05
-0.000148504
-0.00036894
-0.000606392
-0.0011599
0.000332587
0.000305516
0.000315571
0.000261429
0.000344189
0.000381315
0.000345736
0.000372034
0.000447059
0.000416121
0.000375128
0.00036894
0.000245187
0.000211154
0.00014309
-1.23753e-05
-0.000157786
-0.000285406
-0.000413027
-0.00117666
0.000257562
0.000322532
0.000290821
0.000303196
0.000344963
0.000321759
0.000302423
0.000357338
0.000340322
0.00026839
0.000334908
0.000294688
0.000163973
0.000153918
5.95564e-05
-4.40872e-05
-0.000111378
-0.000283086
-0.000370487
-0.00128414
0.000273031
0.000283086
0.000300102
0.000241319
0.000333361
0.000338775
0.000261429
0.00026375
0.0002885
0.000293141
0.000249827
0.000157012
0.000116792
0.000105964
-1.39223e-05
-0.000116019
-0.000116792
-0.000215795
-0.000293915
-0.00120932
0.000279219
0.000238225
0.000310157
0.000262976
0.000252921
0.00028618
0.000218889
0.000226624
0.000260656
0.000211154
0.000215795
0.000201099
3.8673e-05
1.39223e-05
-2.8618e-05
-5.80094e-05
-0.000102097
-0.000249827
-0.000276125
-0.00122798
0.000250601
0.000313251
0.000285406
0.00024828
0.000208061
0.000257562
0.000258335
0.000162426
0.000239772
0.000230491
0.0001253
8.50805e-05
5.87829e-05
1.54692e-05
-5.33687e-05
-0.000139996
-0.000139996
-0.000175575
-0.000211928
-0.00112722
0.000238225
0.00024828
0.000271484
0.000235905
0.000232811
0.000279219
0.00024364
0.000160106
0.000150825
0.000193365
0.000126847
3.40322e-05
2.01099e-05
-3.17118e-05
-6.11033e-05
-7.50255e-05
-0.000144637
-0.000182536
-0.00010055
-0.00104197
0.000216569
0.00024828
0.000238225
0.000271484
0.000287727
0.000227397
0.000200326
0.000163973
0.000166294
0.000191044
7.65725e-05
6.26502e-05
1.77896e-05
-9.90028e-05
-8.43071e-05
-0.000109058
-0.000105964
-7.96663e-05
-0.000191818
-0.00105787
0.000240855
0.000292445
0.00023869
0.000248899
0.000261197
0.000222447
0.000164437
0.000127853
0.000161653
0.000173255
7.9821e-05
4.54021e-05
1.10605e-05
-6.63628e-05
-6.7291e-05
-9.51355e-05
-9.12682e-05
-0.000150051
-0.000211154
-0.000961856
0.000289738
0.000197
0.000243485
0.00028966
0.000197774
0.000226701
0.000175266
0.000164205
0.000168073
9.30471e-05
9.08815e-05
1.37676e-05
-4.20762e-05
-4.7181e-05
-4.03746e-05
-0.000130483
-0.000190116
-0.000166448
-0.000163973
-0.000947471
0.000273805
0.000255396
0.000159023
0.000223298
0.000234822
0.000141775
0.000210226
0.000173564
8.4075e-05
8.17546e-05
8.53126e-05
2.4364e-05
-8.34562e-05
-5.58438e-05
-8.87931e-05
-0.000216801
-0.000239154
-0.000186249
-0.000171708
-0.000995715
-0.0201936
0.0965286
0.100258
0.0896612
0.0724808
0.0560373
0.0414896
0.0285712
0.0164852
0.00493904
-0.0611599
-0.00149982
-0.0125995
-0.0125827
-0.0108609
-0.00743379
-0.00469333
-0.00286304
-0.00169977
-0.000897737
-0.043444
-0.0067344
-0.00650698
0.000350015
-0.00186432
-0.00326022
-0.00319519
-0.00256775
-0.00176541
-0.000826461
-0.0242426
-0.00288237
-0.00868144
-0.000623702
0.0010105
-0.000370459
-0.00149442
-0.00165771
-0.00134658
-0.000794626
-0.0172598
0.000481539
-0.00644519
-0.00352235
-0.000136423
0.000478116
-0.000116196
-0.000661159
-0.000704
-0.000522597
-0.0149429
0.00140782
-0.00288063
-0.00384532
-0.00160729
-2.01144e-05
0.000258777
1.58084e-05
-0.000202641
-0.000375898
-0.0131565
0.00115868
-0.000497649
-0.00271731
-0.0020284
-0.00069181
1.30901e-05
0.000168177
3.97508e-05
-0.000173674
-0.0112146
0.000708575
0.000639871
-0.00136159
-0.0018408
-0.00105138
-0.000228095
7.61819e-05
5.76902e-05
-8.74697e-05
-0.00934576
0.000323048
0.000975721
-0.00039484
-0.00119062
-0.00104011
-0.000485799
-7.52139e-05
7.2583e-05
-4.75586e-05
-0.00745327
0.000132585
0.000992557
9.50957e-05
-0.000671325
-0.000839464
-0.000473357
-0.000214104
-6.92454e-05
-1.22811e-05
-0.00595256
4.76782e-05
0.00092865
0.000423057
-0.00021285
-0.000554475
-0.000487193
-0.000201081
-8.2701e-05
-7.27237e-05
-0.00471519
9.72953e-05
0.000803243
0.000583738
9.21645e-05
-0.000272887
-0.000379247
-0.000262767
-0.000117921
-2.47469e-05
-0.00373715
8.47e-05
0.000722835
0.000563621
0.000231161
-3.08932e-05
-0.000197045
-0.000244731
-9.93884e-05
4.92783e-05
-0.00286854
0.000157537
0.000561873
0.000587431
0.000414985
0.00011164
-7.40966e-05
-0.000160565
-4.81828e-05
7.23203e-05
-0.00236927
0.000109549
0.000514463
0.000542612
0.000462677
0.000273395
9.00036e-05
-5.18764e-05
-5.49799e-05
0.000100934
-0.0020165
0.000133084
0.000498
0.000539523
0.000417309
0.000346824
0.000218836
4.87269e-05
1.52745e-05
0.000132686
-0.00169422
0.000162701
0.000455165
0.000526637
0.000498836
0.000386597
0.000220288
0.000183561
0.000185583
0.000171896
-0.00149885
0.000162411
0.000322137
0.000462016
0.000531535
0.000519755
0.000324735
0.000198272
0.000257306
0.000293267
-0.00153387
5.28552e-05
0.000259635
0.000397694
0.000506377
0.000513027
0.000349431
0.000226527
0.00018625
0.000223546
-0.00112055
0.000289057
0.000315907
0.000242101
0.000166443
8.3083e-05
-2.60664e-05
-6.2527e-05
-1.41435e-05
2.77227e-05
)
;

boundaryField
{
    down
    {
        type            symmetryPlane;
    }
    right
    {
        type            extrapolatedCalculated;
        value           nonuniform List<scalar> 
30
(
0.000291345
0.000329334
0.000394559
0.000511341
0.000668452
0.000804487
0.000857619
0.000784348
0.000575277
0.000705613
-0.000255082
-1.36129e-05
-1.64747e-05
-2.73805e-05
-3.23306e-05
1.13699e-05
2.62976e-06
2.04967e-05
-8.81744e-06
-3.24853e-06
-3.50377e-05
-2.09607e-05
-3.27947e-05
1.2066e-05
-3.61747e-05
5.86824e-05
-9.08041e-06
-4.44739e-06
-2.55474e-06
-1.93906e-06
)
;
    }
    up
    {
        type            symmetryPlane;
    }
    left
    {
        type            extrapolatedCalculated;
        value           nonuniform List<scalar> 
30
(
0.0203961
0.0189843
0.0163842
0.0126526
0.00800408
0.00260147
-0.00354671
-0.0107301
-0.0210125
-0.0160191
-0.0193625
-0.0123181
-0.00393304
-0.00136284
-0.000409933
1.54692e-06
0.000194912
0.00022353
0.000252148
0.000279219
0.000332587
0.000257562
0.000273031
0.000279219
0.000250601
0.000238225
0.000216569
0.000240855
0.000289738
0.000273805
)
;
    }
    cylinder
    {
        type            symmetry;
    }
    defaultFaces
    {
        type            empty;
    }
}


// ************************************************************************* //
