/*--------------------------------*- C++ -*----------------------------------*\
| =========                 |                                                 |
| \\      /  F ield         | OpenFOAM: The Open Source CFD Toolbox           |
|  \\    /   O peration     | Version:  2206                                  |
|   \\  /    A nd           | Website:  www.openfoam.com                      |
|    \\/     M anipulation  |                                                 |
\*---------------------------------------------------------------------------*/
FoamFile
{
    version     2.0;
    format      ascii;
    arch        "LSB;label=32;scalar=64";
    class       volVectorField;
    location    "0";
    object      U_nn;
}
// * * * * * * * * * * * * * * * * * * * * * * * * * * * * * * * * * * * * * //

dimensions      [0 1 -1 0 0 0 0];

internalField   nonuniform List<vector> 
2000
(
(0.546425 -0.00708579 0.00215648)
(0.544826 -0.00716979 0.00238938)
(0.543074 -0.0072582 0.00264213)
(0.541176 -0.00735033 0.00291447)
(0.539135 -0.00744552 0.00320612)
(0.536956 -0.00754306 0.00351683)
(0.534644 -0.00764225 0.00384631)
(0.532205 -0.00774236 0.00419431)
(0.529642 -0.00784268 0.00456054)
(0.526962 -0.00794248 0.00494473)
(0.562741 -0.00630167 0.000398226)
(0.562605 -0.00632458 0.000468119)
(0.562301 -0.00635556 0.000557564)
(0.561836 -0.0063942 0.000666093)
(0.561214 -0.00644008 0.000793252)
(0.56044 -0.00649273 0.000938598)
(0.559518 -0.00655166 0.0011017)
(0.558455 -0.00661636 0.00128213)
(0.557255 -0.0066863 0.00147948)
(0.555923 -0.00676093 0.00169335)
(0.579069 -0.00540501 -0.00128023)
(0.580413 -0.00534487 -0.00135978)
(0.581579 -0.00529461 -0.00141923)
(0.582572 -0.0052541 -0.0014593)
(0.583396 -0.00522316 -0.00148067)
(0.584057 -0.00520157 -0.001484)
(0.584561 -0.00518904 -0.00146993)
(0.584913 -0.00518528 -0.00143906)
(0.585118 -0.00518994 -0.001392)
(0.585181 -0.00520264 -0.00132932)
(0.595321 -0.00440749 -0.00287164)
(0.598157 -0.00424433 -0.00308658)
(0.600806 -0.00409118 -0.00328005)
(0.603274 -0.00394818 -0.00345302)
(0.605566 -0.00381542 -0.00360643)
(0.607689 -0.0036929 -0.00374119)
(0.609647 -0.00358055 -0.00385816)
(0.611447 -0.00347825 -0.00395819)
(0.613093 -0.00338584 -0.00404206)
(0.614593 -0.00330308 -0.00411055)
(0.611405 -0.00332314 -0.00437019)
(0.615734 -0.00303948 -0.00470627)
(0.619873 -0.00276451 -0.00501864)
(0.623827 -0.00249866 -0.00530858)
(0.627601 -0.00224228 -0.00557731)
(0.631203 -0.0019956 -0.00582599)
(0.634637 -0.00175876 -0.00605574)
(0.63791 -0.00153182 -0.00626762)
(0.641029 -0.00131477 -0.00646264)
(0.643999 -0.00110752 -0.00664178)
(0.627225 -0.00216809 -0.00577156)
(0.633043 -0.00174934 -0.00621453)
(0.638669 -0.0013368 -0.00663076)
(0.64411 -0.000931225 -0.00702182)
(0.649371 -0.000533227 -0.00738923)
(0.65446 -0.000143289 -0.0077344)
(0.659382 0.000238227 -0.00805871)
(0.664145 0.000611075 -0.00836345)
(0.668755 0.000975111 -0.00864984)
(0.673219 0.00133028 -0.00891906)
(0.642686 -0.000960108 -0.00707284)
(0.649976 -0.00039491 -0.00760874)
(0.657077 0.000167408 -0.00811411)
(0.663996 0.00072572 -0.00859082)
(0.670738 0.00127908 -0.00904066)
(0.677312 0.00182673 -0.00946534)
(0.683723 0.00236805 -0.00986647)
(0.68998 0.00290257 -0.0102456)
(0.696089 0.00342996 -0.010604)
(0.702057 0.00395001 -0.0109433)
(0.657687 0.000281809 -0.00827251)
(0.666425 0.00100142 -0.00888789)
(0.674978 0.00172196 -0.00946827)
(0.683354 0.00244188 -0.0100158)
(0.69156 0.00315984 -0.0105326)
(0.699604 0.00387472 -0.0110206)
(0.707493 0.00458559 -0.0114817)
(0.715234 0.0052917 -0.0119176)
(0.722836 0.00599244 -0.0123299)
(0.730305 0.00668739 -0.0127202)
(0.672131 0.00153794 -0.0093703)
(0.682278 0.00241642 -0.0100525)
(0.692249 0.00329981 -0.0106946)
(0.702051 0.00418603 -0.0112991)
(0.711691 0.00507325 -0.0118685)
(0.721178 0.00595991 -0.0124048)
(0.730518 0.00684467 -0.0129102)
(0.739721 0.00772639 -0.0133867)
(0.748793 0.00860412 -0.0138361)
(0.757743 0.00947709 -0.0142601)
(0.685918 0.00278831 -0.0103671)
(0.697427 0.00382666 -0.0111043)
(0.708769 0.00487377 -0.0117959)
(0.719952 0.0059269 -0.0124448)
(0.730983 0.00698365 -0.0130536)
(0.741872 0.00804187 -0.0136247)
(0.752624 0.00909972 -0.0141605)
(0.76325 0.0101555 -0.0146632)
(0.773756 0.0112079 -0.0151347)
(0.78415 0.0122557 -0.0155771)
(0.401032 -0.00819718 0.0215791)
(0.38674 -0.0076432 0.023936)
(0.372496 -0.00695427 0.0263593)
(0.358303 -0.00612851 0.0288477)
(0.344165 -0.00516439 0.0313999)
(0.330088 -0.00406071 0.0340144)
(0.316074 -0.0028166 0.0366898)
(0.302129 -0.0014315 0.0394245)
(0.288254 9.48223e-05 0.0422168)
(0.274454 0.00176232 0.0450649)
(0.413074 -0.00855678 0.0197067)
(0.399845 -0.0081493 0.0218357)
(0.386648 -0.00762764 0.024023)
(0.373487 -0.00698999 0.0262677)
(0.360368 -0.00623485 0.0285688)
(0.347295 -0.00536099 0.0309251)
(0.334272 -0.00436744 0.0333353)
(0.321303 -0.00325351 0.0357983)
(0.308392 -0.00201877 0.0383125)
(0.295541 -0.000663051 0.0408766)
(0.425843 -0.00884158 0.0177741)
(0.413729 -0.00856865 0.0196731)
(0.401631 -0.00820126 0.0216232)
(0.389552 -0.00773766 0.0236236)
(0.377498 -0.00717634 0.0256735)
(0.365473 -0.006516 0.0277721)
(0.353482 -0.00575557 0.0299183)
(0.341528 -0.00489422 0.0321112)
(0.329616 -0.00393132 0.0343497)
(0.317748 -0.00286645 0.0366326)
(0.439277 -0.0090364 0.0157993)
(0.42833 -0.00888289 0.0174687)
(0.417379 -0.00865336 0.0191825)
(0.406428 -0.0083461 0.0209403)
(0.395483 -0.00795958 0.0227415)
(0.384549 -0.00749246 0.0245854)
(0.373628 -0.00694356 0.0264713)
(0.362727 -0.00631189 0.0283985)
(0.351849 -0.00559665 0.0303661)
(0.340998 -0.00479718 0.0323732)
(0.453313 -0.00912805 0.0137998)
(0.443581 -0.00907603 0.015242)
(0.433824 -0.00896495 0.0167228)
(0.424046 -0.00879316 0.018242)
(0.414253 -0.00855912 0.0197991)
(0.404449 -0.00826145 0.0213937)
(0.394639 -0.00789889 0.0230252)
(0.384827 -0.00747032 0.0246932)
(0.375018 -0.00697479 0.026397)
(0.365215 -0.00641145 0.028136)
(0.467888 -0.00910559 0.0117922)
(0.459416 -0.00913479 0.0130118)
(0.450896 -0.00912025 0.014265)
(0.442334 -0.00906038 0.0155516)
(0.433734 -0.00895369 0.0168713)
(0.425101 -0.00879879 0.0182239)
(0.41644 -0.00859437 0.019609)
(0.407755 -0.00833924 0.0210263)
(0.399051 -0.00803232 0.0224754)
(0.390332 -0.00767263 0.0239557)
(0.482935 -0.00896063 0.00979263)
(0.475765 -0.0090489 0.010796)
(0.468525 -0.00910697 0.0118287)
(0.46122 -0.00913335 0.0128905)
(0.453854 -0.00912663 0.0139813)
(0.446432 -0.00908546 0.0151011)
(0.438959 -0.00900854 0.0162495)
(0.43144 -0.00889466 0.0174264)
(0.423878 -0.00874269 0.0186315)
(0.41628 -0.00855157 0.0198645)
(0.498386 -0.00868749 0.00781597)
(0.492558 -0.00881132 0.00861122)
(0.486637 -0.00891659 0.00943215)
(0.480628 -0.00900197 0.0102787)
(0.474536 -0.00906617 0.0111509)
(0.468365 -0.00910792 0.0120487)
(0.462121 -0.00912601 0.0129718)
(0.455808 -0.00911927 0.0139201)
(0.44943 -0.00908657 0.0148935)
(0.442993 -0.00902686 0.0158918)
(0.514168 -0.00828335 0.00587613)
(0.509718 -0.00841841 0.00647272)
(0.505154 -0.00854458 0.00709225)
(0.50048 -0.00866072 0.00773467)
(0.495701 -0.0087657 0.00839992)
(0.490822 -0.00885842 0.00908792)
(0.485847 -0.00893779 0.00979855)
(0.480782 -0.00900273 0.0105317)
(0.475631 -0.00905221 0.0112872)
(0.470399 -0.00908523 0.0120649)
(0.530207 -0.0077484 0.00398582)
(0.527168 -0.00787008 0.00439459)
(0.523995 -0.00799052 0.00482434)
(0.520692 -0.00810882 0.00527497)
(0.517264 -0.00822404 0.00574631)
(0.513716 -0.00833528 0.00623824)
(0.510053 -0.00844161 0.00675059)
(0.506279 -0.00854213 0.0072832)
(0.502399 -0.00863595 0.00783587)
(0.498418 -0.00872217 0.00840842)
(0.260502 0.00360125 0.0480145)
(0.246268 0.00563793 0.0510956)
(0.232125 0.00782599 0.0542313)
(0.218074 0.0101642 0.0574192)
(0.204119 0.0126512 0.0606572)
(0.19026 0.0152852 0.0639431)
(0.1765 0.0180642 0.0672744)
(0.16284 0.0209861 0.0706489)
(0.149283 0.0240487 0.074064)
(0.135828 0.0272492 0.0775174)
(0.122478 0.0305851 0.0810065)
(0.109234 0.0340533 0.0845287)
(0.0960967 0.037651 0.0880815)
(0.0830666 0.0413749 0.0916622)
(0.0701446 0.0452217 0.0952682)
(0.0573313 0.0491879 0.0988966)
(0.0446272 0.0532702 0.102545)
(0.0320326 0.0574647 0.106209)
(0.0195477 0.0617679 0.109888)
(0.00717244 0.0661758 0.113578)
(0.281915 0.000911938 0.0436565)
(0.267384 0.00274956 0.0466905)
(0.252945 0.00474268 0.0497826)
(0.238602 0.00689039 0.0529304)
(0.224356 0.00919146 0.056132)
(0.210209 0.0116444 0.0593849)
(0.196163 0.0142476 0.062687)
(0.18222 0.0169989 0.0660358)
(0.16838 0.0198964 0.0694289)
(0.154647 0.0229375 0.072864)
(0.14102 0.0261197 0.0763385)
(0.127501 0.0294403 0.0798498)
(0.11409 0.0328964 0.0833955)
(0.100789 0.0364849 0.0869728)
(0.0875988 0.0402027 0.0905791)
(0.0745188 0.0440464 0.0942118)
(0.06155 0.0480126 0.0978679)
(0.0486928 0.0520977 0.101545)
(0.0359473 0.0562981 0.105239)
(0.0233136 0.0606099 0.108949)
(0.304424 -0.00154827 0.0392469)
(0.289515 8.3267e-05 0.0422394)
(0.274702 0.00187566 0.0452941)
(0.259988 0.00382829 0.0484089)
(0.245374 0.00594023 0.0515815)
(0.230862 0.00821024 0.0548097)
(0.216456 0.0106368 0.0580912)
(0.202155 0.0132183 0.0614236)
(0.187962 0.0159525 0.0648045)
(0.173878 0.0188374 0.0682314)
(0.159905 0.0218705 0.0717019)
(0.146042 0.0250491 0.0752134)
(0.132292 0.0283706 0.0787633)
(0.118654 0.0318318 0.0823489)
(0.10513 0.0354298 0.0859677)
(0.0917204 0.0391613 0.0896167)
(0.0784248 0.0430228 0.0932933)
(0.065244 0.0470108 0.0969946)
(0.0521782 0.0511218 0.100718)
(0.0392275 0.0553519 0.10446)
(0.327952 -0.00372754 0.0348264)
(0.312587 -0.00231161 0.0377807)
(0.297323 -0.000728373 0.0408022)
(0.282161 0.00102191 0.0438885)
(0.267105 0.00293863 0.0470376)
(0.252156 0.00502082 0.0502471)
(0.237316 0.00726724 0.0535147)
(0.222588 0.00967634 0.0568379)
(0.207972 0.0122463 0.0602143)
(0.19347 0.0149751 0.0636414)
(0.179083 0.0178604 0.0671167)
(0.164812 0.0208996 0.0706374)
(0.150658 0.0240902 0.0742011)
(0.136622 0.0274291 0.0778049)
(0.122704 0.0309134 0.0814462)
(0.108904 0.0345398 0.0851222)
(0.0952235 0.0383048 0.0888299)
(0.0816622 0.0422051 0.0925666)
(0.0682204 0.0462369 0.0963293)
(0.054898 0.0503966 0.100115)
(0.352426 -0.00558116 0.0304325)
(0.33653 -0.00439255 0.0333499)
(0.320739 -0.00302923 0.03634)
(0.305057 -0.00149102 0.0394007)
(0.289486 0.000221838 0.0425297)
(0.274029 0.00210872 0.0457246)
(0.258687 0.00416865 0.0489829)
(0.243463 0.00640032 0.0523023)
(0.228358 0.0088021 0.0556801)
(0.213372 0.0113721 0.0591137)
(0.198509 0.0141081 0.0626006)
(0.183767 0.0170077 0.0661379)
(0.169149 0.0200683 0.0697231)
(0.154655 0.023287 0.0733532)
(0.140285 0.0266608 0.0770256)
(0.12604 0.0301864 0.0807372)
(0.11192 0.0338604 0.0844852)
(0.0979252 0.0376793 0.0882666)
(0.0840557 0.0416394 0.0920784)
(0.0703116 0.0457369 0.0959174)
(0.377779 -0.00707173 0.0260999)
(0.361278 -0.00612396 0.0289795)
(0.34489 -0.00499329 0.0319383)
(0.328616 -0.00367902 0.034974)
(0.312461 -0.0021809 0.0380843)
(0.296426 -0.000499152 0.0412667)
(0.280515 0.00136557 0.0445186)
(0.264729 0.00341224 0.0478376)
(0.24907 0.00563945 0.0512208)
(0.233539 0.00804547 0.0546656)
(0.218138 0.0106282 0.0581692)
(0.202867 0.0133854 0.0617289)
(0.187727 0.0163144 0.0653416)
(0.172719 0.0194124 0.0690046)
(0.157844 0.0226764 0.0727149)
(0.143101 0.026103 0.0764694)
(0.128491 0.0296888 0.0802652)
(0.114013 0.0334302 0.084099)
(0.0996689 0.0373234 0.0879678)
(0.085457 0.0413645 0.0918683)
(0.403946 -0.00816934 0.0218606)
(0.386771 -0.00747723 0.0246995)
(0.369715 -0.0065935 0.0276249)
(0.352781 -0.00551673 0.0306344)
(0.335974 -0.0042461 0.0337255)
(0.319296 -0.00278132 0.0368956)
(0.30275 -0.0011226 0.0401422)
(0.286339 0.000729367 0.0434624)
(0.270065 0.00277344 0.0468534)
(0.253928 0.00500808 0.0503124)
(0.237931 0.00743138 0.0538364)
(0.222074 0.0100411 0.0574223)
(0.206358 0.0128347 0.0610672)
(0.190784 0.0158093 0.064768)
(0.175352 0.0189618 0.0685216)
(0.160063 0.0222889 0.0723247)
(0.144915 0.0257871 0.0761742)
(0.12991 0.0294525 0.0800667)
(0.115047 0.0332814 0.0839991)
(0.100325 0.0372697 0.0879678)
(0.430864 -0.00885176 0.0177439)
(0.412948 -0.0084308 0.0205373)
(0.395157 -0.00780926 0.0234252)
(0.377498 -0.00698483 0.0264052)
(0.359974 -0.00595588 0.0294748)
(0.342589 -0.00472148 0.0326312)
(0.325347 -0.00328128 0.0358717)
(0.30825 -0.00163555 0.0391932)
(0.291301 0.000214932 0.0425927)
(0.274501 0.00226888 0.0460672)
(0.257852 0.00452455 0.0496135)
(0.241356 0.0069798 0.0532284)
(0.225012 0.00963212 0.0569085)
(0.208822 0.0124786 0.0606507)
(0.192786 0.0155162 0.0644515)
(0.176904 0.0187414 0.0683075)
(0.161176 0.0221505 0.0722154)
(0.145601 0.0257397 0.0761716)
(0.130179 0.0295049 0.0801725)
(0.114911 0.0334417 0.0842147)
(0.458465 -0.00910477 0.0137765)
(0.439746 -0.00897034 0.0165177)
(0.42116 -0.00862655 0.0193623)
(0.402714 -0.0080699 0.0223079)
(0.384412 -0.00729775 0.0253518)
(0.36626 -0.00630828 0.0284912)
(0.348261 -0.00510045 0.0317231)
(0.33042 -0.00367392 0.0350443)
(0.31274 -0.00202902 0.0384515)
(0.295222 -0.000166698 0.0419414)
(0.277869 0.00191153 0.0455106)
(0.260681 0.00420366 0.0491555)
(0.243661 0.00670722 0.0528726)
(0.226808 0.00941933 0.0566583)
(0.210123 0.0123367 0.060509)
(0.193606 0.0154559 0.064421)
(0.177257 0.0187729 0.0683906)
(0.161075 0.0222837 0.072414)
(0.145059 0.025984 0.0764874)
(0.12921 0.0298691 0.0806071)
(0.486676 -0.00892269 0.00998328)
(0.467099 -0.00908908 0.0126636)
(0.447661 -0.00903803 0.0154573)
(0.428371 -0.0087645 0.0183617)
(0.409235 -0.00826453 0.0213741)
(0.390259 -0.00753516 0.0244915)
(0.371449 -0.00657436 0.0277108)
(0.35281 -0.00538102 0.0310284)
(0.334345 -0.00395486 0.0344409)
(0.316057 -0.00229637 0.0379446)
(0.297949 -0.000406728 0.0415357)
(0.280023 0.00171223 0.0452105)
(0.26228 0.00405812 0.0489649)
(0.244721 0.00662805 0.0527951)
(0.227346 0.00941866 0.0566971)
(0.210155 0.0124262 0.0606669)
(0.193147 0.0156466 0.0647003)
(0.176323 0.0190755 0.0687934)
(0.159682 0.0227082 0.072942)
(0.143221 0.0265398 0.0771419)
(0.507691 -0.00851522 0.00736258)
(0.48762 -0.00890558 0.00997069)
(0.467692 -0.0090771 0.0126973)
(0.447916 -0.00902361 0.0155401)
(0.428301 -0.00874013 0.0184963)
(0.408853 -0.00822277 0.0215629)
(0.389579 -0.00746875 0.0247366)
(0.370483 -0.00647626 0.0280139)
(0.351571 -0.0052445 0.0313912)
(0.332845 -0.00377349 0.0348646)
(0.31431 -0.00206409 0.0384304)
(0.295966 -0.000117848 0.0420843)
(0.277816 0.00206301 0.0458225)
(0.25986 0.00447569 0.0496407)
(0.242099 0.00711691 0.0535348)
(0.224532 0.00998292 0.0575007)
(0.20716 0.0130696 0.0615341)
(0.189981 0.0163725 0.0656309)
(0.172994 0.0198868 0.0697866)
(0.156199 0.0236076 0.0739972)
(0.521243 -0.00813958 0.00579648)
(0.501062 -0.00866658 0.00832967)
(0.481026 -0.008979 0.0109818)
(0.461145 -0.0090702 0.0137505)
(0.441428 -0.00893472 0.0166331)
(0.421881 -0.00856826 0.0196268)
(0.402512 -0.00796763 0.0227282)
(0.383325 -0.00713068 0.0259341)
(0.364325 -0.00605625 0.0292407)
(0.345516 -0.00474407 0.0326443)
(0.326901 -0.00319472 0.0361411)
(0.308482 -0.00140952 0.0397271)
(0.29026 0.000609533 0.0433982)
(0.272237 0.00285986 0.0471505)
(0.254412 0.00533834 0.0509797)
(0.236785 0.00804141 0.0548818)
(0.219356 0.0109651 0.0588526)
(0.202124 0.0141051 0.062888)
(0.185088 0.0174569 0.0669837)
(0.168245 0.0210155 0.0711357)
(0.534574 -0.00768903 0.00431679)
(0.51428 -0.00834668 0.00677691)
(0.494134 -0.00879415 0.00935623)
(0.474146 -0.0090243 0.0120525)
(0.454325 -0.00903121 0.0148633)
(0.434678 -0.00881013 0.0177857)
(0.415211 -0.00835749 0.0208165)
(0.395931 -0.00767075 0.0239524)
(0.376843 -0.00674842 0.0271898)
(0.357949 -0.00558994 0.030525)
(0.339253 -0.0041956 0.0339542)
(0.320757 -0.00256649 0.0374734)
(0.302463 -0.000704384 0.0410787)
(0.284371 0.00138833 0.0447659)
(0.266483 0.00370871 0.0485311)
(0.248796 0.00625334 0.0523701)
(0.231311 0.0090184 0.0562789)
(0.214027 0.0119997 0.0602533)
(0.196941 0.0151929 0.0642893)
(0.180053 0.0185932 0.0683827)
(0.547699 -0.00717047 0.00291769)
(0.527291 -0.00795307 0.00530651)
(0.507034 -0.00852999 0.00781479)
(0.486937 -0.00889362 0.0104404)
(0.467009 -0.00903756 0.013181)
(0.44726 -0.00895662 0.0160337)
(0.427694 -0.0086468 0.0189954)
(0.408319 -0.0081052 0.0220629)
(0.389139 -0.00732998 0.0252325)
(0.370158 -0.00632027 0.0285007)
(0.35138 -0.0050761 0.0318637)
(0.332806 -0.0035983 0.0353174)
(0.314438 -0.00188843 0.038858)
(0.296277 5.13034e-05 0.0424814)
(0.278323 0.00221812 0.0461835)
(0.260576 0.00460875 0.0499604)
(0.243035 0.00721953 0.0538079)
(0.225698 0.0100464 0.0577221)
(0.208564 0.013085 0.0616988)
(0.191631 0.0163309 0.065734)
(0.560638 -0.00659003 0.00159367)
(0.540114 -0.0074921 0.00391291)
(0.519742 -0.00819316 0.00635181)
(0.499534 -0.00868507 0.00890841)
(0.479498 -0.00896095 0.0115803)
(0.459643 -0.00901516 0.0143649)
(0.439976 -0.00884328 0.0172591)
(0.420504 -0.008442 0.0202596)
(0.40123 -0.00780915 0.023363)
(0.38216 -0.00694352 0.0265656)
(0.363296 -0.00584488 0.0298637)
(0.344642 -0.00451381 0.0332533)
(0.326199 -0.00295165 0.0367304)
(0.307967 -0.00116044 0.0402912)
(0.289946 0.000857226 0.0439314)
(0.272137 0.00309821 0.0476472)
(0.254539 0.00555896 0.0514344)
(0.237149 0.00823554 0.0552891)
(0.219966 0.0111237 0.0592072)
(0.202988 0.014219 0.0631847)
(0.57341 -0.00595306 0.000339611)
(0.552767 -0.00696941 0.00259087)
(0.532279 -0.00778954 0.00496197)
(0.511957 -0.0084048 0.00745107)
(0.49181 -0.00880781 0.0100559)
(0.471847 -0.00899246 0.0127738)
(0.452076 -0.00895388 0.015602)
(0.432503 -0.00868838 0.018537)
(0.413133 -0.0081934 0.0215756)
(0.39397 -0.00746744 0.024714)
(0.375019 -0.00650994 0.0279486)
(0.356282 -0.00532124 0.0312754)
(0.33776 -0.00390249 0.0346904)
(0.319455 -0.0022555 0.0381898)
(0.301366 -0.000382749 0.0417693)
(0.283493 0.00171279 0.0454251)
(0.265835 0.00402766 0.0491531)
(0.248391 0.00655805 0.0529492)
(0.231158 0.0092998 0.0568095)
(0.214134 0.0122485 0.0607301)
(0.586031 -0.0052643 -0.000849303)
(0.565268 -0.00638995 0.00133549)
(0.544661 -0.00732434 0.00364028)
(0.524223 -0.00805826 0.00606333)
(0.503962 -0.00858384 0.00860249)
(0.483889 -0.00889448 0.0112552)
(0.46401 -0.00898485 0.0140187)
(0.444333 -0.00885085 0.0168897)
(0.424864 -0.00848953 0.0198648)
(0.405607 -0.00789905 0.0229405)
(0.386565 -0.00707856 0.0261129)
(0.367742 -0.00602815 0.0293782)
(0.349139 -0.00474871 0.0327325)
(0.330757 -0.0032419 0.0361717)
(0.312597 -0.00151001 0.0396918)
(0.294658 0.000444107 0.0432888)
(0.276938 0.00261711 0.0469586)
(0.259438 0.00500526 0.0506973)
(0.242153 0.0076045 0.0545008)
(0.225082 0.0104105 0.0583653)
(0.598522 -0.00452782 -0.00197753)
(0.577636 -0.00575803 0.00014221)
(0.556908 -0.00680207 0.00238205)
(0.536351 -0.00765022 0.00474042)
(0.515974 -0.00829406 0.00721525)
(0.495787 -0.00872649 0.00980413)
(0.475798 -0.00894172 0.0125042)
(0.456014 -0.00893521 0.0153125)
(0.436442 -0.00870361 0.0182255)
(0.417086 -0.00824472 0.0212397)
(0.39795 -0.00755738 0.0243513)
(0.379038 -0.0066414 0.0275565)
(0.36035 -0.00549746 0.0308513)
(0.341889 -0.00412699 0.0342317)
(0.323654 -0.00253215 0.0376936)
(0.305646 -0.000715634 0.041233)
(0.287862 0.00131931 0.0448459)
(0.270303 0.00356905 0.0485282)
(0.252964 0.00602956 0.052276)
(0.235844 0.00869659 0.0560853)
(0.6109 -0.00374718 -0.00304917)
(0.589889 -0.00507738 -0.000993201)
(0.569038 -0.0062267 0.00118297)
(0.548359 -0.00718484 0.00347789)
(0.527863 -0.00794286 0.00588963)
(0.507559 -0.00849315 0.00841586)
(0.487457 -0.0088294 0.0110539)
(0.467563 -0.00894662 0.0138006)
(0.447885 -0.00884106 0.0166527)
(0.428427 -0.00851014 0.0196066)
(0.409193 -0.00795236 0.0226587)
(0.390187 -0.00716725 0.025805)
(0.371411 -0.00615523 0.0290416)
(0.352867 -0.00491754 0.0323644)
(0.334554 -0.00345616 0.0357694)
(0.316473 -0.00177366 0.0392525)
(0.298622 0.000126837 0.0428096)
(0.281 0.00224177 0.0464368)
(0.263605 0.00456719 0.05013)
(0.246433 0.00709888 0.0538853)
(0.623183 -0.00292542 -0.00406803)
(0.602046 -0.00435123 -0.00207464)
(0.581069 -0.00560162 3.90131e-05)
(0.560266 -0.00666573 0.00227162)
(0.539648 -0.00753407 0.00462138)
(0.519225 -0.00819848 0.00708608)
(0.499006 -0.00865216 0.00966308)
(0.478999 -0.00888962 0.0123494)
(0.45921 -0.00890669 0.0151418)
(0.439646 -0.00870037 0.0180367)
(0.420311 -0.00826883 0.0210304)
(0.401208 -0.00761128 0.024119)
(0.38234 -0.00672789 0.0272986)
(0.363708 -0.00561969 0.030565)
(0.345314 -0.00428845 0.0339143)
(0.327156 -0.00273661 0.0373423)
(0.309234 -0.000967191 0.0408449)
(0.291546 0.00101634 0.0444181)
(0.27409 0.0032101 0.0480579)
(0.256863 0.0056099 0.0517603)
(0.635389 -0.00206517 -0.00503756)
(0.614124 -0.00358234 -0.00310567)
(0.59302 -0.00492974 -0.0010535)
(0.572091 -0.00609598 0.0011178)
(0.551348 -0.00707096 0.00340659)
(0.530802 -0.00784598 0.00581076)
(0.510463 -0.00841371 0.00832776)
(0.490339 -0.00876815 0.0109547)
(0.470437 -0.00890467 0.0136884)
(0.450763 -0.00881986 0.0165252)
(0.431322 -0.00851151 0.0194616)
(0.412118 -0.0079785 0.0224937)
(0.393153 -0.00722072 0.0256174)
(0.37443 -0.00623896 0.0288287)
(0.355949 -0.00503481 0.0321234)
(0.337711 -0.00361055 0.0354975)
(0.319713 -0.00196908 0.0389468)
(0.301955 -0.000113788 0.0424673)
(0.284435 0.00195152 0.0460548)
(0.267149 0.0042227 0.0497055)
(0.647536 -0.00116866 -0.00596091)
(0.626141 -0.00277305 -0.00408955)
(0.604908 -0.00421357 -0.00209794)
(0.58385 -0.00547822 1.29639e-05)
(0.56298 -0.00655634 0.00224166)
(0.542309 -0.00743864 0.00458617)
(0.521847 -0.00811723 0.00704406)
(0.501602 -0.00858562 0.00961251)
(0.481583 -0.00883866 0.0122884)
(0.461795 -0.0088725 0.0150682)
(0.442244 -0.00868454 0.0179483)
(0.422935 -0.00827331 0.0209248)
(0.403869 -0.00763838 0.0239937)
(0.38505 -0.00678031 0.0271508)
(0.366479 -0.00570047 0.0303922)
(0.348154 -0.00440097 0.0337135)
(0.330077 -0.00288459 0.0371107)
(0.312245 -0.00115461 0.0405795)
(0.294655 0.000785224 0.044116)
(0.277307 0.0029308 0.0477162)
(0.65964 -0.000237802 -0.00684092)
(0.638114 -0.00192537 -0.00502924)
(0.61675 -0.00345519 -0.00309736)
(0.595562 -0.00481467 -0.00104608)
(0.574563 -0.00599256 0.00112329)
(0.553763 -0.00697897 0.00340889)
(0.533175 -0.00776544 0.00580843)
(0.512806 -0.00834492 0.00831917)
(0.492666 -0.00871176 0.010938)
(0.47276 -0.00886164 0.0136616)
(0.453096 -0.00879151 0.0164862)
(0.433676 -0.00849955 0.0194081)
(0.414505 -0.007985 0.0224231)
(0.395586 -0.00724813 0.0255272)
(0.376918 -0.00629008 0.0287162)
(0.358504 -0.0051128 0.0319858)
(0.340342 -0.0037189 0.0353319)
(0.32243 -0.00211157 0.0387503)
(0.304768 -0.000294498 0.0422369)
(0.287351 0.00172827 0.0457877)
(0.671718 0.000725752 -0.00768015)
(0.65006 -0.00104102 -0.00592739)
(0.628564 -0.0026564 -0.00405454)
(0.607244 -0.00410722 -0.0020622)
(0.586112 -0.00538161 4.84796e-05)
(0.565182 -0.00646909 0.00227581)
(0.544465 -0.0073606 0.00461762)
(0.523969 -0.00804851 0.00707129)
(0.503704 -0.00852662 0.00963382)
(0.483677 -0.00879012 0.0123018)
(0.463894 -0.00883551 0.0150718)
(0.44436 -0.00866055 0.0179397)
(0.42508 -0.00826414 0.0209017)
(0.406054 -0.00764625 0.0239536)
(0.387287 -0.00680776 0.0270912)
(0.368777 -0.00575041 0.0303101)
(0.350525 -0.00447667 0.0336063)
(0.332529 -0.00298962 0.0369753)
(0.314788 -0.00129283 0.0404131)
(0.297299 0.000609667 0.0439156)
(0.683785 0.00172058 -0.00848091)
(0.661994 -0.000121442 -0.00678638)
(0.640365 -0.00181869 -0.00497194)
(0.618911 -0.00335742 -0.00303798)
(0.597646 -0.00472514 -0.000985458)
(0.576583 -0.00591076 0.00118412)
(0.555734 -0.00690458 0.00346871)
(0.535108 -0.00769839 0.00586583)
(0.514715 -0.00828542 0.00837256)
(0.494562 -0.00866033 0.0109856)
(0.474657 -0.00881913 0.0137014)
(0.455005 -0.00875914 0.0165162)
(0.435609 -0.00847888 0.0194259)
(0.416474 -0.00797799 0.0224263)
(0.397601 -0.00725709 0.0255133)
(0.37899 -0.00631767 0.0286825)
(0.360643 -0.00516204 0.0319296)
(0.342558 -0.00379313 0.0352503)
(0.324733 -0.00221444 0.0386404)
(0.307166 -0.000429925 0.0420958)
(0.695855 0.00274541 -0.00924521)
(0.673932 0.000832094 -0.00760833)
(0.652169 -0.000943353 -0.00585179)
(0.63058 -0.00256659 -0.00397574)
(0.609181 -0.00402452 -0.00198094)
(0.587983 -0.0053054 0.000131279)
(0.566999 -0.00639892 0.00235905)
(0.54624 -0.00729623 0.00470001)
(0.525715 -0.00798997 0.00715135)
(0.505434 -0.00847423 0.00970988)
(0.485402 -0.00874451 0.0123721)
(0.465627 -0.00879767 0.0151342)
(0.446112 -0.00863181 0.0179921)
(0.426861 -0.0082462 0.0209418)
(0.407877 -0.00764115 0.0239789)
(0.389161 -0.00681792 0.0270991)
(0.370714 -0.00577861 0.030298)
(0.352534 -0.004526 0.0335713)
(0.334619 -0.00306348 0.0369147)
(0.316969 -0.00139493 0.0403239)
(0.707944 0.00379913 -0.00997487)
(0.685888 0.00181848 -0.00839511)
(0.663991 -3.14816e-05 -0.00669602)
(0.642267 -0.00173583 -0.0048775)
(0.620731 -0.00328087 -0.0029401)
(0.599396 -0.00465419 -0.000884951)
(0.578276 -0.00584485 0.00128626)
(0.557381 -0.00684335 0.00357133)
(0.536722 -0.0076417 0.00596756)
(0.516308 -0.00823341 0.00847188)
(0.496146 -0.00861342 0.0110808)
(0.476243 -0.00877808 0.0137906)
(0.456605 -0.00872506 0.0165973)
(0.437234 -0.00845322 0.0194968)
(0.418134 -0.00796255 0.0224846)
(0.399307 -0.00725403 0.0255565)
(0.380754 -0.00632951 0.0287079)
(0.362473 -0.00519161 0.0319346)
(0.344463 -0.00384361 0.0352322)
(0.326724 -0.00228929 0.0385963)
(0.720063 0.00488067 -0.0106714)
(0.697876 0.0028367 -0.00914836)
(0.675845 0.000915955 -0.00750634)
(0.653985 -0.000866092 -0.00574506)
(0.632311 -0.00249511 -0.00386483)
(0.610839 -0.00395808 -0.00186655)
(0.58958 -0.00524335 0.000248265)
(0.568547 -0.00634078 0.00247759)
(0.547751 -0.00724174 0.00481888)
(0.527201 -0.00793909 0.00726915)
(0.506905 -0.00842721 0.00982503)
(0.486871 -0.00870191 0.0124828)
(0.467104 -0.00876036 0.0152386)
(0.447609 -0.008601 0.0180882)
(0.428388 -0.00822345 0.0210272)
(0.409445 -0.00762838 0.0240513)
(0.390779 -0.00681738 0.027156)
(0.372392 -0.00579289 0.0303368)
(0.354282 -0.00455801 0.0335893)
(0.336447 -0.00311644 0.0369091)
(0.732227 0.00598904 -0.0113363)
(0.709909 0.00388583 -0.00986949)
(0.687744 0.00189808 -0.00828423)
(0.665748 4.18143e-05 -0.00657997)
(0.643937 -0.00166804 -0.00475675)
(0.622325 -0.00321781 -0.00281525)
(0.600927 -0.00459518 -0.000756766)
(0.579754 -0.00578932 0.00141685)
(0.558818 -0.00679092 0.00370323)
(0.538129 -0.00759221 0.00609951)
(0.517696 -0.00818693 0.00860242)
(0.497527 -0.00857033 0.0112083)
(0.477627 -0.00873904 0.0139134)
(0.458002 -0.00869106 0.0167133)
(0.438656 -0.00842558 0.0196039)
(0.41959 -0.00794294 0.0225806)
(0.400808 -0.00724444 0.025639)
(0.382308 -0.00633228 0.0287745)
(0.364091 -0.0052094 0.0319827)
(0.346155 -0.00387937 0.035259)
(0.744446 0.00712323 -0.0119707)
(0.721998 0.00496494 -0.0105597)
(0.699701 0.00291407 -0.00903098)
(0.677569 0.000987138 -0.00738355)
(0.65562 -0.000800331 -0.00561725)
(0.633869 -0.00243402 -0.00373252)
(0.61233 -0.00390093 -0.0017304)
(0.591015 -0.00518956 0.000387448)
(0.569937 -0.00628987 0.00261883)
(0.549107 -0.00719343 0.00496105)
(0.528533 -0.00789333 0.00741094)
(0.508225 -0.00838419 0.00996497)
(0.488188 -0.00866211 0.0126193)
(0.46843 -0.00872455 0.0153698)
(0.448952 -0.00857029 0.0182121)
(0.42976 -0.00819926 0.0211417)
(0.410855 -0.00761245 0.0241542)
(0.392237 -0.0068118 0.0272449)
(0.373907 -0.00580004 0.0304092)
(0.355863 -0.00458061 0.0336426)
(0.794762 0.0133324 -0.0160066)
(0.767667 0.0104587 -0.0147158)
(0.739554 0.00756815 -0.0131997)
(0.71065 0.00472591 -0.0114434)
(0.681179 0.0019994 -0.00943607)
(0.651354 -0.000544808 -0.00717162)
(0.621376 -0.00284413 -0.0046491)
(0.591427 -0.00484279 -0.00187263)
(0.561673 -0.00649392 0.00114881)
(0.532257 -0.00776098 0.00440187)
(0.80571 0.014449 -0.016427)
(0.778704 0.0115646 -0.0152036)
(0.750742 0.00865618 -0.0137655)
(0.722043 0.00578545 -0.0120983)
(0.692821 0.00301675 -0.0101918)
(0.663285 0.000413928 -0.00804033)
(0.633629 -0.00196273 -0.00564298)
(0.604034 -0.00405922 -0.003004)
(0.574661 -0.00582995 -0.000132403)
(0.545654 -0.00723924 0.00295847)
(0.816575 0.0155594 -0.0168203)
(0.789658 0.0126691 -0.0156617)
(0.761844 0.00974797 -0.0142983)
(0.733344 0.00685466 -0.0127164)
(0.704364 0.00405042 -0.0109063)
(0.675105 0.00139646 -0.00886226)
(0.645756 -0.00104911 -0.0065837)
(0.616493 -0.00323388 -0.00407471)
(0.587476 -0.00511336 -0.00134414)
(0.558847 -0.00665248 0.00159485)
(0.827365 0.0166625 -0.0171881)
(0.800536 0.0137708 -0.0160917)
(0.772869 0.0108421 -0.0148)
(0.744563 0.0079318 -0.0132998)
(0.715817 0.00509829 -0.0115817)
(0.686823 0.00240021 -0.00964014)
(0.657767 -0.000106403 -0.00747444)
(0.628818 -0.00237065 -0.0050885)
(0.600134 -0.00434899 -0.00249086)
(0.571852 -0.00600676 0.000305709)
(0.838088 0.0177575 -0.0175317)
(0.811348 0.0148688 -0.0164953)
(0.783824 0.0119373 -0.0152724)
(0.755708 0.00901531 -0.0138505)
(0.727189 0.00615848 -0.0122203)
(0.698452 0.00342288 -0.0103765)
(0.669675 0.000862579 -0.00831817)
(0.641023 -0.00147299 -0.00604891)
(0.612648 -0.00354112 -0.00357677)
(0.584688 -0.00530743 -0.000913963)
(0.848751 0.0188438 -0.0178526)
(0.822099 0.0159621 -0.0168738)
(0.794718 0.0130323 -0.015717)
(0.766789 0.0101038 -0.0143701)
(0.738491 0.00722928 -0.0128241)
(0.710003 0.00446244 -0.0110737)
(0.681492 0.00185534 -0.00911766)
(0.653121 -0.000543956 -0.00695919)
(0.625036 -0.00269354 -0.00460574)
(0.597371 -0.00455919 -0.00206883)
(0.859361 0.0199206 -0.0181519)
(0.832798 0.0170499 -0.0172286)
(0.805559 0.0141262 -0.0161353)
(0.777813 0.011196 -0.0148604)
(0.749732 0.00830918 -0.0133951)
(0.721484 0.00551704 -0.0117339)
(0.693231 0.00286967 -0.00987547)
(0.665126 0.000413753 -0.00782239)
(0.637312 -0.00180955 -0.00558141)
(0.609918 -0.00376617 -0.00316323)
(0.869925 0.0209873 -0.0184309)
(0.843452 0.0181315 -0.0175609)
(0.816354 0.0152181 -0.0165287)
(0.78879 0.0122908 -0.0153229)
(0.760921 0.0093968 -0.0139349)
(0.732907 0.00658503 -0.0123592)
(0.704901 0.00390359 -0.010594)
(0.67705 0.00139775 -0.00864129)
(0.649491 -0.000892089 -0.00650713)
(0.622348 -0.00293196 -0.0042012)
(0.880448 0.0220435 -0.0186905)
(0.854067 0.0192061 -0.017872)
(0.82711 0.016307 -0.0168985)
(0.799727 0.013387 -0.015759)
(0.772067 0.0104909 -0.0144452)
(0.744282 0.00766493 -0.0129513)
(0.716516 0.00495533 -0.0112753)