/*--------------------------------*- C++ -*----------------------------------*\
| =========                 |                                                 |
| \\      /  F ield         | OpenFOAM: The Open Source CFD Toolbox           |
|  \\    /   O peration     | Version:  2206                                  |
|   \\  /    A nd           | Website:  www.openfoam.com                      |
|    \\/     M anipulation  |                                                 |
\*---------------------------------------------------------------------------*/
FoamFile
{
    version     2.0;
    format      ascii;
    arch        "LSB;label=32;scalar=64";
    class       volScalarField;
    location    "0";
    object      U_nn_div;
}
// * * * * * * * * * * * * * * * * * * * * * * * * * * * * * * * * * * * * * //

dimensions      [0 0 -1 0 0 0 0];

internalField   nonuniform List<scalar> 
2000
(
12.2148
-0.142468
-0.147732
-0.153044
-0.15838
-0.163715
-0.169025
-0.174284
-0.179469
-0.147782
11.242
-0.13302
-0.137367
-0.141773
-0.146223
-0.150697
-0.155178
-0.159647
-0.164083
-0.13813
10.1916
-0.123762
-0.127211
-0.130726
-0.134297
-0.137911
-0.141554
-0.145213
-0.148873
-0.127726
9.06989
-0.114796
-0.117383
-0.12004
-0.122758
-0.125531
-0.128348
-0.1312
-0.134078
-0.116914
7.88392
-0.106219
-0.107996
-0.109843
-0.111754
-0.113725
-0.115749
-0.117821
-0.119934
-0.106075
6.64107
-0.0981176
-0.0991513
-0.100253
-0.101419
-0.102648
-0.103935
-0.105276
-0.106667
-0.0956031
5.34917
-0.0905662
-0.0909351
-0.0913709
-0.0918716
-0.0924351
-0.0930589
-0.0937406
-0.0944772
-0.0858692
4.01636
-0.0836248
-0.0834177
-0.0832786
-0.0832053
-0.0831957
-0.0832477
-0.0833591
-0.0835278
-0.0771952
2.65095
-0.0773375
-0.0766501
-0.0760347
-0.0754885
-0.0750084
-0.074592
-0.0742366
-0.0739398
-0.069827
1.26138
-0.0717315
-0.0706629
-0.0696742
-0.0687611
-0.0679193
-0.0671449
-0.0664345
-0.0657846
-0.0639162
16.3968
-0.703312
-0.744562
-0.775005
-0.796502
-0.810467
-0.818004
-0.820005
-0.817206
-0.812302
16.8142
-0.219001
-0.231481
-0.24367
-0.255453
-0.26672
-0.277374
-0.287328
-0.29651
-0.31143
16.6964
-0.212366
-0.224218
-0.235821
-0.24707
-0.257865
-0.268118
-0.277748
-0.286687
-0.30624
16.4793
-0.205076
-0.21625
-0.22722
-0.237894
-0.24818
-0.257999
-0.267276
-0.275949
-0.300208
16.1623
-0.1972
-0.207647
-0.217937
-0.227988
-0.237721
-0.247062
-0.255946
-0.264314
-0.29315
15.7454
-0.188818
-0.198489
-0.20805
-0.217429
-0.226557
-0.235369
-0.243806
-0.251816
-0.284928
15.2292
-0.180013
-0.188864
-0.197647
-0.206303
-0.214771
-0.222996
-0.230926
-0.238512
-0.275466
14.6152
-0.170875
-0.178866
-0.186829
-0.194712
-0.202466
-0.210043
-0.217398
-0.22449
-0.264764
13.9059
-0.161503
-0.168602
-0.175706
-0.182771
-0.18976
-0.19663
-0.203345
-0.209869
-0.252913
13.1044
-0.151999
-0.158185
-0.1644
-0.170613
-0.176791
-0.182903
-0.188916
-0.194801
-0.240097
-0.809913
-0.823306
-0.829638
-0.831086
-0.827823
-0.820057
-0.808018
-0.791956
-0.772136
-0.74883
-0.722316
-0.692871
-0.660765
-0.626264
-0.589623
-0.551084
-0.510875
-0.469209
-0.426284
-10.102
-0.306038
-0.319842
-0.326162
-0.331474
-0.335785
-0.339115
-0.341496
-0.342971
-0.343589
-0.343407
-0.342487
-0.340893
-0.338691
-0.335947
-0.332728
-0.329096
-0.325113
-0.320838
-0.316324
-10.2715
-0.291598
-0.310763
-0.317696
-0.323631
-0.328565
-0.33251
-0.335493
-0.337549
-0.338725
-0.339073
-0.338653
-0.337527
-0.33576
-0.333419
-0.330569
-0.327275
-0.323599
-0.319601
-0.315338
-10.4444
-0.276116
-0.300867
-0.308505
-0.31515
-0.320789
-0.325426
-0.329079
-0.331778
-0.333564
-0.334486
-0.334601
-0.333971
-0.332659
-0.330732
-0.328257
-0.325301
-0.321927
-0.318198
-0.314172
-10.5507
-0.25973
-0.290121
-0.298545
-0.305981
-0.312405
-0.31781
-0.322204
-0.32561
-0.328063
-0.329608
-0.330298
-0.330195
-0.329362
-0.327867
-0.325779
-0.323165
-0.320093
-0.316628
-0.312831
-10.593
-0.24257
-0.278505
-0.287784
-0.296086
-0.30337
-0.309617
-0.314823
-0.319001
-0.322181
-0.324401
-0.325712
-0.326174
-0.325851
-0.32481
-0.323123
-0.320862
-0.318095
-0.314893
-0.31132
-10.5761
-0.224747
-0.266021
-0.276209
-0.285439
-0.293652
-0.300811
-0.306898
-0.311916
-0.315883
-0.318834
-0.320816
-0.321885
-0.322105
-0.321546
-0.320281
-0.318385
-0.315932
-0.312995
-0.309645
-10.5064
-0.206357
-0.252699
-0.263832
-0.274038
-0.283236
-0.291369
-0.298403
-0.304325
-0.309143
-0.312884
-0.315588
-0.317309
-0.31811
-0.318063
-0.317244
-0.31573
-0.313602
-0.310936
-0.30781
-10.3916
-0.187477
-0.238602
-0.250689
-0.2619
-0.272126
-0.281287
-0.289326
-0.296214
-0.301945
-0.306532
-0.310011
-0.312432
-0.313855
-0.314354
-0.314007
-0.312896
-0.311106
-0.308721
-0.305824
-10.2397
-0.187862
-0.240125
-0.250035
-0.259453
-0.26825
-0.276317
-0.283569
-0.289941
-0.295393
-0.299906
-0.303481
-0.306138
-0.307909
-0.308842
-0.308993
-0.308426
-0.307209
-0.305412
-0.303107
-10.0584
-0.20816
-0.202413
-0.217912
-0.232507
-0.246031
-0.258346
-0.26935
-0.278979
-0.2872
-0.29401
-0.299437
-0.30353
-0.306359
-0.308008
-0.308573
-0.308154
-0.30686
-0.304794
-0.302063
-10.0012
-0.215975
-0.20941
-0.222513
-0.234944
-0.246554
-0.257218
-0.266839
-0.275349
-0.282708
-0.288901
-0.293938
-0.297849
-0.300681
-0.302496
-0.303367
-0.303372
-0.302597
-0.301128
-0.299051
-10.1787
-0.209964
-0.20483
-0.217734
-0.230011
-0.241515
-0.252125
-0.261743
-0.2703
-0.277754
-0.284086
-0.289301
-0.293425
-0.296498
-0.298577
-0.299728
-0.300025
-0.299547
-0.298377
-0.296595
-10.3535
-0.204266
-0.200454
-0.213147
-0.225256
-0.236638
-0.247174
-0.256769
-0.265352
-0.272879
-0.279328
-0.2847
-0.289016
-0.292311
-0.294636
-0.296052
-0.296627
-0.296435
-0.295552
-0.294058
-10.5255
-0.198864
-0.196275
-0.208747
-0.220675
-0.23192
-0.242365
-0.251917
-0.260507
-0.268086
-0.274632
-0.280141
-0.28463
-0.288128
-0.290682
-0.292347
-0.293186
-0.293267
-0.292663
-0.291446
-10.6947
-0.193742
-0.192283
-0.204527
-0.216262
-0.227357
-0.237696
-0.24719
-0.255766
-0.263379
-0.270003
-0.27563
-0.280272
-0.283956
-0.286722
-0.288621
-0.289709
-0.290051
-0.289714
-0.288768
-10.8614
-0.188882
-0.188472
-0.20048
-0.212014
-0.222946
-0.233166
-0.242585
-0.251132
-0.258761
-0.265443
-0.27117
-0.275948
-0.279801
-0.282763
-0.284879
-0.286204
-0.286795
-0.286715
-0.286029
-11.0255
-0.184269
-0.184831
-0.196599
-0.207924
-0.218683
-0.228772
-0.238101
-0.246605
-0.254233
-0.260957
-0.266766
-0.271663
-0.275667
-0.278809
-0.281129
-0.282676
-0.283504
-0.28367
-0.283235
-11.1872
-0.179885
-0.181354
-0.192876
-0.203985
-0.214564
-0.22451
-0.233739
-0.242183
-0.249796
-0.256547
-0.262421
-0.267421
-0.271561
-0.274868
-0.277377
-0.279133
-0.280185
-0.280586
-0.280393
-11.3465
-0.175717
-0.17803
-0.189304
-0.200193
-0.210584
-0.220378
-0.229494
-0.237868
-0.245452
-0.252214
-0.258139
-0.263226
-0.267487
-0.270943
-0.273628
-0.275579
-0.276843
-0.277469
-0.277509
-11.5036
-0.171748
-0.174852
-0.185877
-0.196541
-0.206737
-0.216372
-0.225367
-0.233658
-0.2412
-0.24796
-0.253922
-0.259082
-0.263448
-0.267041
-0.269886
-0.272021
-0.273486
-0.274325
-0.274587
-11.6586
-0.167965
-0.171811
-0.182585
-0.193022
-0.203019
-0.212488
-0.221353
-0.229552
-0.237041
-0.243787
-0.249772
-0.254991
-0.25945
-0.263164
-0.266159
-0.268464
-0.270117
-0.271159
-0.271634
-11.8115
-0.164353
-0.1689
-0.179424
-0.189631
-0.199426
-0.208723
-0.21745
-0.225549
-0.232975
-0.239695
-0.245692
-0.250958
-0.255496
-0.259319
-0.262448
-0.264912
-0.266742
-0.267976
-0.268654
-11.9624
-0.1609
-0.16611
-0.176384
-0.186361
-0.195951
-0.205072
-0.213656
-0.221647
-0.229
-0.235685
-0.241682
-0.246983
-0.251588
-0.255508
-0.25876
-0.26137
-0.263365
-0.264781
-0.265653
-12.1114
-0.157593
-0.163435
-0.17346
-0.183207
-0.19259
-0.201532
-0.209968
-0.217844
-0.225117
-0.231757
-0.237744
-0.243069
-0.247729
-0.251734
-0.255098
-0.257842
-0.259992
-0.261578
-0.262634
-12.2587
-0.15442
-0.160866
-0.170645
-0.180163
-0.189339
-0.198099
-0.206383
-0.214138
-0.221325
-0.227912
-0.23388
-0.239218
-0.243923
-0.248001
-0.251465
-0.254333
-0.256626
-0.258373
-0.259603
-12.4042
-0.151371
-0.158397
-0.167933
-0.177224
-0.186192
-0.19477
-0.202898
-0.210529
-0.217622
-0.224149
-0.230089
-0.235431
-0.240171
-0.244313
-0.247866
-0.250846
-0.253272
-0.255169
-0.256564
-12.5481
-0.148435
-0.156022
-0.165319
-0.174384
-0.183145
-0.191539
-0.199511
-0.207013
-0.214008
-0.220468
-0.226373
-0.231711
-0.236476
-0.240671
-0.244303
-0.247385
-0.249934
-0.251971
-0.25352
-12.6904
-0.145604
-0.153734
-0.162795
-0.171638
-0.180194
-0.188405
-0.196218
-0.203588
-0.210481
-0.216869
-0.222732
-0.228057
-0.232839
-0.237077
-0.240778
-0.243952
-0.246614
-0.248782
-0.250476
-12.8312
1.05323
1.11473
1.17066
1.2213
1.26663
1.30669
1.34155
1.3713
1.39604
1.41594
1.43113
1.44179
1.44812
1.45029
1.44853
1.44302
1.43398
1.42163
1.40616
-11.334
-0.0658478
-0.0771027
-0.0900666
-0.104727
-0.121056
-0.139011
-0.158534
-0.17956
-0.202016
-0.196076
-0.0638128
-0.0722235
-0.0821684
-0.0935575
-0.106246
-0.120043
-0.13472
-0.150025
-0.165698
-0.154564
-0.0631238
-0.0713425
-0.0810343
-0.0921112
-0.104434
-0.11782
-0.132053
-0.146895
-0.162099
-0.153113
-0.0624866
-0.0705259
-0.0799794
-0.0907608
-0.102736
-0.115732
-0.129543
-0.143943
-0.158699
-0.151669
-0.0618979
-0.0697696
-0.0789987
-0.0895006
-0.101147
-0.113771
-0.12718
-0.141158
-0.155485
-0.15024
-0.0613548
-0.0690697
-0.0780872
-0.0883246
-0.0996582
-0.11193
-0.124955
-0.138532
-0.15245
-0.148833
-0.0608542
-0.0684224
-0.0772405
-0.0872272
-0.0982641
-0.1102
-0.122861
-0.136054
-0.149581
-0.147453
-0.0603935
-0.0678243
-0.076454
-0.0862033
-0.0969583
-0.108575
-0.120888
-0.133716
-0.14687
-0.146104
-0.0599699
-0.0672719
-0.0757235
-0.0852476
-0.0957347
-0.107048
-0.11903
-0.131508
-0.144306
-0.144788
-0.059581
-0.0667619
-0.0750451
-0.0843553
-0.0945875
-0.105612
-0.117277
-0.129423
-0.141879
-0.143508
-0.0592242
-0.0662912
-0.0744147
-0.0835216
-0.0935112
-0.104259
-0.115624
-0.127451
-0.139581
-0.142265
-0.0588972
-0.0658567
-0.0738286
-0.082742
-0.0925004
-0.102986
-0.114063
-0.125586
-0.137404
-0.14106
-0.0585978
-0.0654557
-0.0732834
-0.0820124
-0.0915502
-0.101784
-0.112586
-0.123819
-0.135337
-0.139893
-0.0583238
-0.0650852
-0.0727757
-0.0813286
-0.0906556
-0.10065
-0.111189
-0.122142
-0.133373
-0.138764
-0.058073
-0.0647428
-0.0723021
-0.0806868
-0.0898121
-0.0995763
-0.109864
-0.12055
-0.131505
-0.137672
-0.0578435
-0.0644259
-0.0718598
-0.0800832
-0.0890155
-0.0985595
-0.108606
-0.119035
-0.129726
-0.136616
-0.0576333
-0.0641321
-0.0714457
-0.0795145
-0.0882615
-0.0975944
-0.107409
-0.117592
-0.128027
-0.135595
-0.0574406
-0.0638592
-0.0710571
-0.0789774
-0.0875464
-0.0966764
-0.106268
-0.116215
-0.126404
-0.134608
-0.0572637
-0.0636049
-0.0706915
-0.0784687
-0.0868665
-0.0958013
-0.105179
-0.114897
-0.124849
-0.133654
0.142132
0.288798
0.427518
0.555363
0.670011
0.769846
0.853984
0.922223
0.974957
1.01351
-0.0603764
-0.0481366
-0.0476947
-0.0473798
-0.0472173
-0.0472349
-0.0474636
-0.0479367
-0.0486904
-12.1179
-0.0593438
-0.0467594
-0.0465822
-0.0465294
-0.046624
-0.0468913
-0.0473589
-0.0480569
-0.0490178
-10.9453
-0.0581174
-0.0456575
-0.0457521
-0.0459664
-0.0463209
-0.0468381
-0.0475426
-0.0484611
-0.0496223
-9.71457
-0.0568106
-0.0449815
-0.0453419
-0.0458152
-0.0464196
-0.0471746
-0.0481019
-0.0492246
-0.0505677
-8.4336
-0.0555979
-0.0448952
-0.0454998
-0.046209
-0.0470383
-0.0480048
-0.0491268
-0.0504243
-0.0519187
-7.11032
-0.0547049
-0.0455692
-0.046379
-0.0472841
-0.0482976
-0.0494337
-0.0507081
-0.0521372
-0.0537391
-5.75278
-0.0543907
-0.0471741
-0.0481318
-0.0491753
-0.0503153
-0.0515636
-0.0529328
-0.0544365
-0.0560895
-4.36912
-0.0549251
-0.0498712
-0.0509014
-0.0520086
-0.0532012
-0.0544887
-0.055881
-0.0573888
-0.059024
-2.96754
-0.056562
-0.0538028
-0.0548138
-0.0558944
-0.057051
-0.0582908
-0.0596214
-0.0610509
-0.0625884
-1.55635
-0.0595119
-0.0590822
-0.0599692
-0.0609204
-0.0619403
-0.0630342
-0.0642075
-0.0654664
-0.0668172
-0.143918
1.59777
1.64058
1.6861
1.73444
1.78609
1.84173
1.90225
1.96885
2.0432
-16.9124
-0.0578892
-0.0569799
-0.0554708
-0.054079
-0.0528399
-0.0517932
-0.050983
-0.0504571
-0.0502675
-18.8723
-0.0576416
-0.0569466
-0.0554155
-0.0539995
-0.0527345
-0.0516605
-0.0508218
-0.0502673
-0.0500497
-18.5347
-0.0571131
-0.0566246
-0.0551072
-0.0537047
-0.0524526
-0.0513908
-0.0505635
-0.0500195
-0.0498116
-18.0816
-0.0561717
-0.0560157
-0.054548
-0.0531963
-0.0519957
-0.0509853
-0.0502087
-0.049714
-0.0495532
-17.5173
-0.0546873
-0.0551341
-0.0537522
-0.0524886
-0.0513775
-0.0504569
-0.0497693
-0.0493612
-0.0492835
-16.8469
-0.0525398
-0.054007
-0.052747
-0.0516084
-0.0506238
-0.0498299
-0.0492676
-0.0489815
-0.0490205
-16.076
-0.0496291
-0.0526763
-0.0515738
-0.0505956
-0.0497728
-0.0491404
-0.048737
-0.0486051
-0.0487909
-15.2108
-0.0458877
-0.0512003
-0.0502892
-0.0495046
-0.0488761
-0.0484363
-0.0482216
-0.0482717
-0.0486297
-14.258
-0.0412922
-0.0496553
-0.0489661
-0.0484046
-0.0479982
-0.0477773
-0.0477756
-0.0480298
-0.0485796
-13.2246
24.48
2.2911
2.25936
2.22709
2.19424
2.16077
2.12664
2.09179
2.05618
2.01976
1.98247
1.94426
1.90508
1.86487
1.82357
1.78112
1.73748
1.69257
1.64634
1.59844
21.9652
-0.0852787
-0.0842782
-0.0832336
-0.0821425
-0.0810029
-0.0798129
-0.078571
-0.0772762
-0.0759279
-0.0745264
-0.0730727
-0.0715691
-0.0700187
-0.0684266
-0.0667991
-0.0651447
-0.063474
-0.0618002
-0.0608749
21.7304
-0.0856583
-0.0846587
-0.0836141
-0.0825219
-0.0813799
-0.080186
-0.0789384
-0.0776357
-0.0762773
-0.0748631
-0.0733939
-0.0718718
-0.0702998
-0.0686828
-0.067027
-0.0653409
-0.0636352
-0.0619232
-0.061235
21.3773
-0.0859844
-0.0849738
-0.0839166
-0.0828099
-0.0816514
-0.0804385
-0.0791693
-0.0778423
-0.0764566
-0.075012
-0.0735093
-0.0719504
-0.0703386
-0.0686788
-0.0669776
-0.065244
-0.0634894
-0.0617278
-0.06124
20.9201
-0.0862557
-0.0852222
-0.0841397
-0.0830051
-0.0818156
-0.0805686
-0.079262
-0.0778941
-0.0764637
-0.0749709
-0.0734163
-0.0718022
-0.0701321
-0.0684116
-0.066648
-0.0648514
-0.0630343
-0.0612124
-0.0610271
20.3756
-0.0864705
-0.0854021
-0.0842815
-0.0831053
-0.0818705
-0.0805743
-0.0792143
-0.0777886
-0.0762962
-0.0747372
-0.0731125
-0.0714248
-0.0696785
-0.0678798
-0.0660377
-0.0641638
-0.0622727
-0.0603826
-0.0607552
19.762
-0.0866267
-0.0855112
-0.0843396
-0.0831083
-0.0818137
-0.080453
-0.0790235
-0.0775234
-0.0759518
-0.0743088
-0.0725962
-0.0708172
-0.0689774
-0.0670847
-0.0651499
-0.0631871
-0.0612139
-0.0592525
-0.060603
19.0977
-0.0867218
-0.085547
-0.0843115
-0.0830113
-0.0816427
-0.0802023
-0.0786875
-0.0770965
-0.0754287
-0.0736847
-0.071867
-0.0699802
-0.0680315
-0.0660311
-0.0639924
-0.0619332
-0.0598755
-0.0578464
-0.0607672
18.4002
-0.0867531
-0.0855068
-0.0841946
-0.082812
-0.0813549
-0.07982
-0.0782044
-0.0765067
-0.0747264
-0.0728652
-0.0709268
-0.0689175
-0.0668469
-0.0647283
-0.0625792
-0.0604222
-0.0582851
-0.0562021
-0.0614603
17.6855
-0.0862834
-0.0846019
-0.0827937
-0.0808464
-0.0787476
-0.0764847
-0.0740452
-0.0714173
-0.0685901
-0.0655541
-0.0623022
-0.05883
-0.0551368
-0.0512268
-0.0471099
-0.042803
-0.038331
-0.0337284
-0.0395481
17.2419
-0.0870888
-0.0860299
-0.0849383
-0.0838137
-0.0826566
-0.0814687
-0.080253
-0.0790142
-0.0777592
-0.0764975
-0.0752415
-0.0740074
-0.0728153
-0.0716899
-0.0706615
-0.0697654
-0.0690436
-0.0685439
-0.0611156
17.2459
-0.0865966
-0.0851767
-0.0836816
-0.0821067
-0.0804473
-0.0786998
-0.0768617
-0.0749317
-0.0729107
-0.0708018
-0.0686112
-0.0663486
-0.0640283
-0.0616695
-0.0592971
-0.0569428
-0.0546454
-0.0524519
-0.0435828
17.2489
-0.0864761
-0.0850205
-0.0834902
-0.0818806
-0.0801875
-0.0784076
-0.0765384
-0.0745792
-0.0725311
-0.0703974
-0.0681847
-0.0659029
-0.0635663
-0.0611942
-0.0588115
-0.0564496
-0.0541469
-0.0519497
-0.043432
17.2512
-0.0862991
-0.0848043
-0.0832353
-0.0815878
-0.0798579
-0.0780426
-0.0761399
-0.0741494
-0.0720725
-0.069913
-0.0676775
-0.0653766
-0.0630245
-0.0606407
-0.0582502
-0.055884
-0.0535804
-0.051385
-0.0432125
17.2528
-0.0860635
-0.0845261
-0.0829152
-0.0812267
-0.0794573
-0.0776042
-0.075666
-0.0736425
-0.0715355
-0.0693493
-0.067091
-0.0647712
-0.0624048
-0.0600111
-0.0576154
-0.0552486
-0.0529485
-0.0507603
-0.0429299
17.2538
-0.0857671
-0.084184
-0.0825283
-0.0807963
-0.078985
-0.0770921
-0.0751165
-0.0730586
-0.0709207
-0.0687075
-0.0664264
-0.0640886
-0.0617092
-0.0593078
-0.0569097
-0.0545459
-0.0522539
-0.0500784
-0.0425899
17.2544
-0.0854079
-0.0837764
-0.0820734
-0.0802956
-0.0784404
-0.076506
-0.0744917
-0.0723985
-0.0702292
-0.0679889
-0.0656856
-0.0633309
-0.0609401
-0.0585333
-0.0561359
-0.0537789
-0.0514996
-0.0493422
-0.0421985
17.2546
-0.084984
-0.0833017
-0.0815492
-0.0797236
-0.0778229
-0.0758457
-0.0737919
-0.0716629
-0.069462
-0.067195
-0.0648704
-0.0625001
-0.0601
-0.0576906
-0.0552971
-0.0529508
-0.0506889
-0.048555
-0.0417616
17.2545
-0.0844936
-0.0827585
-0.0809547
-0.0790799
-0.0771325
-0.0751116
-0.0730177
-0.0708527
-0.0686207
-0.0663277
-0.063983
-0.0615989
-0.0591918
-0.0567825
-0.0543965
-0.052065
-0.0498252
-0.0477202
-0.0412851
17.2543
-0.0839354
-0.0821458
-0.0802893
-0.0783641
-0.0763691
-0.0743041
-0.0721699
-0.0699693
-0.0677067
-0.065389
-0.0630257
-0.06063
-0.0582185
-0.0558123
-0.0534374
-0.051125
-0.048912
-0.0468412
-0.0407749
17.2541
-0.0833082
-0.0814627
-0.0795524
-0.0775761
-0.0755332
-0.0734239
-0.0712498
-0.0690142
-0.0667221
-0.0643811
-0.0620012
-0.0595962
-0.0571831
-0.0547835
-0.0524235
-0.0501345
-0.0479531
-0.0459218
-0.0402368
17.2539
-0.0826109
-0.0807086
-0.078744
-0.0767162
-0.0746253
-0.072472
-0.0702587
-0.0679892
-0.0656691
-0.0633065
-0.0609124
-0.0585006
-0.0560891
-0.0536996
-0.0513585
-0.0490971
-0.0469522
-0.0449656
-0.0396764
17.2539
-0.081843
-0.0798834
-0.0778641
-0.0757849
-0.0736463
-0.0714499
-0.0691984
-0.0668963
-0.06455
-0.0621681
-0.0597622
-0.0573467
-0.05494
-0.0525642
-0.0502461
-0.048017
-0.0459133
-0.0439765
-0.0390992
17.2542
-0.0810041
-0.078987
-0.0769133
-0.0747831
-0.0725977
-0.0703591
-0.0680709
-0.065738
-0.0633676
-0.0609688
-0.0585539
-0.0561379
-0.0537395
-0.0513814
-0.0490904
-0.0468979
-0.0448402
-0.0429583
-0.0385104
17.2549
-0.0800944
-0.07802
-0.0758923
-0.073712
-0.0714808
-0.0692016
-0.0668784
-0.0645168
-0.0621247
-0.0597118
-0.057291
-0.0548778
-0.0524915
-0.0501549
-0.0478953
-0.0457439
-0.0437369
-0.0419148
-0.0379149
17.2561
-0.0791142
-0.0769832
-0.0748023
-0.072573
-0.0702977
-0.0679796
-0.0656235
-0.0632357
-0.0608245
-0.0584006
-0.0559771
-0.0535703
-0.0511998
-0.0488889
-0.0466649
-0.0445591
-0.0426074
-0.0408498
-0.0373175
17.2578
-0.0780643
-0.0758776
-0.0736449
-0.0713682
-0.0690504
-0.0666956
-0.064309
-0.0618976
-0.0594704
-0.0570386
-0.054616
-0.0522193
-0.0498686
-0.0475874
-0.0454033
-0.0433475
-0.0414556
-0.039767
-0.0367227
17.2603
-0.0769459
-0.0747047
-0.0724218
-0.0700996
-0.0677416
-0.0653524
-0.0629381
-0.0605061
-0.058066
-0.0556297
-0.0532116
-0.0508288
-0.0485019
-0.0462546
-0.0441146
-0.0421132
-0.0402855
-0.0386702
-0.0361345
17.2635
-0.0757603
-0.0734665
-0.0711353
-0.0687697
-0.066374
-0.0639532
-0.061514
-0.0590645
-0.056615
-0.0541778
-0.0517679
-0.049403
-0.0471039
-0.0448947
-0.0428031
-0.0408602
-0.0391008
-0.037563
-0.0355569
14.8796
-2.42093
-2.37473
-2.32617
-2.27515
-2.22158
-2.16536
-2.10641
-2.04462
-1.97993
-1.91226
-1.84156
-1.76777
-1.69087
-1.61084
-1.52769
-1.44146
-1.35221
-1.26004
-1.16479
-0.0454663
-0.0342431
-0.0327584
-0.0321734
-0.0326763
-0.0344302
-0.0375715
-0.0422106
-0.0484323
-0.056298
-0.0568958
-0.0466699
-0.0451542
-0.0440758
-0.0436141
-0.0439579
-0.0452971
-0.0478118
-0.0516603
-0.0569673
-0.0558188
-0.0461424
-0.0446264
-0.0435656
-0.0431315
-0.0435039
-0.0448616
-0.0473731
-0.0511852
-0.0564117
-0.0547279
-0.0455793
-0.0440752
-0.0430428
-0.0426464
-0.0430563
-0.0444409
-0.0469575
-0.0507417
-0.055897
-0.05362
-0.0449827
-0.0435023
-0.0425091
-0.0421598
-0.0426156
-0.044035
-0.0465642
-0.0503281
-0.0554209
-0.0524927
-0.0443551
-0.0429098
-0.0419659
-0.0416726
-0.0421824
-0.0436436
-0.0461922
-0.049943
-0.0549812
-0.0513442
-0.0436991
-0.0422999
-0.041415
-0.0411861
-0.0417571
-0.0432667
-0.0458409
-0.0495851
-0.0545756
-0.0501734
-0.0430174
-0.0416749
-0.040858
-0.0407014
-0.0413403
-0.0429042
-0.0455097
-0.0492528
-0.0542023
-0.0489797
-0.0423128
-0.0410369
-0.0402968
-0.0402197
-0.0409326
-0.0425561
-0.0451978
-0.048945
-0.0538592
-0.0477629
-0.0415881
-0.0403884
-0.039733
-0.0397421
-0.0405345
-0.0422224
-0.0449046
-0.0486604
-0.0535444
-0.0465233
-0.0408462
-0.0397315
-0.0391683
-0.0392696
-0.0401466
-0.041903
-0.0446294
-0.0483978
-0.0532561
-0.0452616
-0.0400899
-0.0390686
-0.0386044
-0.0388035
-0.0397694
-0.0415978
-0.0443718
-0.048156
-0.0529926
-0.043979
-0.039322
-0.0384019
-0.038043
-0.0383448
-0.0394033
-0.0413068
-0.0441309
-0.0479338
-0.0527522
-0.0426769
-0.0385452
-0.0377334
-0.0374855
-0.0378943
-0.0390487
-0.0410298
-0.0439062
-0.0477302
-0.0525332
-0.0413571
-0.0377623
-0.0370654
-0.0369335
-0.0374529
-0.0387059
-0.0407666
-0.0436971
-0.0475439
-0.052334
-0.0400215
-0.0369758
-0.0363997
-0.0363883
-0.0370216
-0.0383753
-0.040517
-0.0435028
-0.0473739
-0.0521531
-0.0386724
-0.0361883
-0.0357382
-0.0358511
-0.0366009
-0.038057
-0.0402808
-0.0433227
-0.047219
-0.051989
-0.0373122
-0.0354021
-0.0350827
-0.0353232
-0.0361916
-0.0377513
-0.0400577
-0.0431561
-0.0470783
-0.0518403
-0.0359433
-0.0346195
-0.0344348
-0.0348057
-0.0357942
-0.0374581
-0.0398474
-0.0430023
-0.0469506
-0.0517054
-1.09001
-1.0156
-0.928624
-0.82859
-0.7157
-0.590749
-0.455191
-0.311156
-0.161388
-0.00911909
)
;

boundaryField
{
    down
    {
        type            symmetryPlane;
    }
    right
    {
        type            extrapolatedCalculated;
        value           nonuniform List<scalar> 
30
(
-10.102
-10.2715
-10.4444
-10.5507
-10.593
-10.5761
-10.5064
-10.3916
-10.2397
-10.0584
-10.0012
-10.1787
-10.3535
-10.5255
-10.6947
-10.8614
-11.0255
-11.1872
-11.3465
-11.5036
-11.6586
-11.8115
-11.9624
-12.1114
-12.2587
-12.4042
-12.5481
-12.6904
-12.8312
-11.334
)
;
    }
    up
    {
        type            symmetryPlane;
    }
    left
    {
        type            extrapolatedCalculated;
        value           nonuniform List<scalar> 
30
(
24.48
21.9652
21.7304
21.3773
20.9201
20.3756
19.762
19.0977
18.4002
17.6855
17.2419
17.2459
17.2489
17.2512
17.2528
17.2538
17.2544
17.2546
17.2545
17.2543
17.2541
17.2539
17.2539
17.2542
17.2549
17.2561
17.2578
17.2603
17.2635
14.8796
)
;
    }
    cylinder
    {
        type            symmetry;
    }
    defaultFaces
    {
        type            empty;
    }
}


// ************************************************************************* //
