/*--------------------------------*- C++ -*----------------------------------*\
| =========                 |                                                 |
| \\      /  F ield         | OpenFOAM: The Open Source CFD Toolbox           |
|  \\    /   O peration     | Version:  2112                                  |
|   \\  /    A nd           | Website:  www.openfoam.com                      |
|    \\/     M anipulation  |                                                 |
\*---------------------------------------------------------------------------*/
FoamFile
{
    version     2.0;
    format      ascii;
    arch        "LSB;label=32;scalar=64";
    class       volScalarField;
    location    "0";
    object      error_U;
}
// * * * * * * * * * * * * * * * * * * * * * * * * * * * * * * * * * * * * * //

dimensions      [0 1 -1 0 0 0 0];

internalField   nonuniform List<scalar> 
2000
(
0.195884
0.13178
0.0913283
0.0637546
0.0437007
0.0286844
0.0177378
0.0107942
0.00811503
0.00821817
0.265
0.179776
0.123207
0.0843385
0.057161
0.0385195
0.0267701
0.020627
0.0180251
0.0165113
0.330777
0.225389
0.153652
0.104216
0.0704916
0.0486709
0.0362813
0.0305986
0.0281638
0.0261919
0.392195
0.267726
0.181563
0.121936
0.0816545
0.0564243
0.0431277
0.0379287
0.036301
0.0352122
0.448206
0.305772
0.205897
0.136275
0.0891786
0.0599735
0.0453908
0.0407873
0.0402554
0.0400137
0.497649
0.338524
0.225719
0.146387
0.0922264
0.0583246
0.041954
0.0383128
0.0394258
0.0402818
0.539315
0.36503
0.240433
0.152094
0.0909718
0.0516766
0.0326926
0.0309211
0.0347144
0.037097
0.572122
0.3846
0.249864
0.153924
0.0869056
0.0422415
0.0190402
0.0212658
0.0288581
0.0326285
0.59514
0.3968
0.254287
0.153166
0.082933
0.0360566
0.0109132
0.0180852
0.026599
0.0296623
0.607744
0.401477
0.254239
0.151386
0.0824102
0.0408576
0.0256338
0.0279021
0.0307189
0.0298758
1.00471
0.757066
0.534953
0.352842
0.218456
0.133896
0.0943219
0.0810334
0.0728486
0.0617237
0.814955
0.599782
0.410121
0.25718
0.145554
0.0757327
0.046868
0.0436983
0.0423925
0.0367
0.647211
0.465928
0.308264
0.182795
0.0916758
0.0330969
0.0157354
0.0278055
0.0330938
0.0328865
0.499786
0.352668
0.226011
0.126605
0.0555459
0.0114416
0.0199738
0.0329436
0.0382797
0.0396241
0.370441
0.256843
0.159827
0.085371
0.036334
0.0222456
0.032534
0.0401612
0.0435274
0.0445922
0.256867
0.175302
0.106227
0.0556841
0.0300239
0.030965
0.0380013
0.0421707
0.0438633
0.0443614
0.157644
0.105486
0.0623758
0.0347209
0.0281658
0.032787
0.0368179
0.0385431
0.0388517
0.0385542
0.0773949
0.0483859
0.0293154
0.0234787
0.0264963
0.0296295
0.0308154
0.0306782
0.0298591
0.0283913
0.0640825
0.0382994
0.0303341
0.0282821
0.0268753
0.024809
0.0225557
0.0208874
0.0198185
0.0182921
0.125301
0.082564
0.0591907
0.044138
0.0326887
0.023275
0.0159271
0.0116105
0.0110773
0.0131952
0.0478517
0.033893
0.0213748
0.0137762
0.01452
0.019137
0.0231285
0.0253734
0.0257781
0.0245706
0.0222027
0.0195053
0.0180453
0.0199171
0.0258919
0.0351329
0.0467937
0.0604567
0.0759577
0.0932498
0.0290867
0.0201891
0.0127529
0.0109164
0.014525
0.0188541
0.0220159
0.0235927
0.0235726
0.0221062
0.0194939
0.0163535
0.0141281
0.0153299
0.02104
0.0300721
0.0414367
0.0547417
0.0698633
0.0867832
0.0312858
0.0264379
0.0224434
0.0205293
0.020568
0.0215312
0.0224066
0.022594
0.0218251
0.0200311
0.0173018
0.0140069
0.0113274
0.0119902
0.0174253
0.026156
0.0371402
0.0500475
0.0648017
0.0814122
0.0399876
0.0358824
0.0317703
0.0284512
0.0260205
0.0242813
0.0228904
0.021506
0.0198511
0.0177278
0.0150409
0.0119312
0.00929436
0.00977875
0.0149355
0.0232402
0.0337526
0.0462289
0.0606419
0.0770237
0.0456704
0.0419199
0.0376084
0.0334802
0.0295759
0.0259389
0.022637
0.0197239
0.0171566
0.0147663
0.0123322
0.00979093
0.00779025
0.00857134
0.0134088
0.021141
0.0310953
0.0431245
0.0572398
0.0734905
0.0462866
0.04363
0.0397862
0.0355469
0.0308402
0.0258945
0.0211035
0.0168759
0.0134935
0.0109869
0.00911326
0.00761342
0.00682767
0.00819968
0.0126088
0.0196409
0.028981
0.0405727
0.054453
0.0706845
0.0415088
0.0409436
0.0382701
0.0343752
0.0293477
0.0237428
0.0181641
0.0131514
0.00918989
0.00671899
0.0058262
0.00590973
0.00657383
0.00839855
0.0122635
0.0185293
0.0272426
0.0384336
0.0521615
0.0684966
0.0320011
0.0341171
0.0329753
0.0297213
0.0251985
0.0201229
0.0149759
0.0101298
0.00599523
0.00345869
0.00382867
0.00541714
0.00696668
0.00887339
0.0121539
0.0176621
0.0257695
0.0366111
0.0502744
0.0668421
0.0213434
0.0253884
0.0260214
0.0241046
0.0211474
0.0176301
0.0137988
0.00994176
0.00649643
0.00435283
0.00459239
0.00612888
0.00773685
0.00947848
0.0122087
0.0169956
0.0245149
0.0350449
0.0487213
0.0656507
0.0163366
0.0212717
0.0240471
0.0232807
0.0211339
0.0183209
0.0151169
0.0118104
0.00881341
0.00677462
0.0063747
0.0073245
0.00871558
0.0102603
0.0125124
0.0165893
0.02348
0.0336856
0.0474278
0.0648459
0.0138928
0.0193572
0.0239126
0.025284
0.0241778
0.0215231
0.018072
0.0144036
0.0110104
0.00844687
0.00734344
0.00778011
0.00901844
0.010554
0.0127006
0.0164884
0.0230461
0.0330601
0.046848
0.0645917
0.00909884
0.0133402
0.0173833
0.0195878
0.0200022
0.0191252
0.0174548
0.0153924
0.0132847
0.0115069
0.010446
0.0102892
0.0108513
0.0118959
0.0136702
0.0171022
0.0233491
0.0331705
0.0469199
0.06478
0.007716
0.00946573
0.0134495
0.0166075
0.0184588
0.0191265
0.01883
0.017796
0.0162907
0.0146598
0.0133155
0.0125781
0.0125213
0.0130742
0.0144663
0.0175711
0.0235729
0.0332919
0.047099
0.0651757
0.00920046
0.00917251
0.0129754
0.0167653
0.019507
0.0210287
0.0213767
0.0207072
0.0192763
0.0174626
0.0157228
0.0144605
0.0138746
0.0139864
0.0150286
0.0178428
0.0236762
0.0333846
0.0473514
0.0657441
0.0109644
0.0115832
0.015324
0.0191939
0.0221426
0.023845
0.0242582
0.0235127
0.0218666
0.0197218
0.01756
0.015848
0.0148279
0.0145744
0.0153054
0.0178922
0.0236239
0.0334239
0.047648
0.0664574
0.0130099
0.0151352
0.0189448
0.0226099
0.0253327
0.0268013
0.0269492
0.0258772
0.0238621
0.0213305
0.018786
0.0167013
0.01537
0.0148236
0.0152971
0.0176892
0.0233989
0.0333806
0.04797
0.0672989
0.0158754
0.0191153
0.022896
0.0261791
0.0284525
0.0294637
0.0291412
0.027622
0.0251916
0.0222712
0.019397
0.0170499
0.0154903
0.014747
0.015012
0.0172406
0.0229949
0.0332534
0.0483072
0.0682481
0.019552
0.0232237
0.0267084
0.029472
0.0311594
0.0315753
0.0306994
0.0286705
0.0258024
0.0225319
0.0194134
0.0169075
0.0152551
0.0143864
0.0144586
0.0165355
0.0223869
0.0330288
0.0486536
0.0693025
0.023646
0.0271774
0.0301527
0.0322642
0.0332536
0.0330136
0.0315316
0.0289882
0.0257031
0.0221548
0.0188848
0.0163678
0.0147435
0.0138282
0.0136882
0.0155921
0.0216019
0.0327173
0.0490113
0.0704551
0.02773
0.0307378
0.0330435
0.0343996
0.0346473
0.0337035
0.0316168
0.0285773
0.0249297
0.0211894
0.017919
0.0155576
0.0141065
0.013188
0.0127931
0.0144308
0.0206302
0.0323225
0.0493842
0.0717126
0.0314456
0.0337302
0.0352426
0.0358017
0.0352741
0.0336362
0.0309507
0.0274537
0.0235383
0.0197386
0.016659
0.0146699
0.0135482
0.0126578
0.011881
0.0130955
0.0194783
0.0318646
0.0497909
0.0730827
0.0345331
0.0359945
0.0366561
0.0363948
0.0351043
0.0327847
0.0295554
0.0256932
0.0216242
0.0179658
0.0153528
0.0139983
0.0133458
0.0124677
0.0111343
0.0116093
0.0181785
0.0313506
0.0502382
0.0745747
0.0368193
0.0374221
0.0372398
0.0361644
0.0341347
0.0311869
0.0274888
0.0233587
0.0193279
0.0161222
0.0143558
0.0139243
0.0137979
0.0128539
0.0107638
0.0100549
0.0167364
0.0308198
0.0507543
0.0762042
0.0382138
0.0379651
0.0369519
0.0351014
0.0323814
0.0288809
0.0248137
0.0206036
0.0169243
0.0146446
0.0141825
0.0147907
0.0151013
0.0139783
0.0109888
0.008547
0.0151688
0.0302932
0.0513623
0.0779932
0.0386526
0.0375874
0.0357925
0.0332153
0.0298779
0.0259264
0.0216546
0.0176729
0.0148842
0.014166
0.0152511
0.016757
0.0172925
0.0158614
0.0119393
0.00728401
0.0135162
0.0298111
0.0520928
0.0799534
0.038123
0.0362944
0.0337791
0.0305503
0.0266967
0.0224427
0.0182714
0.0150612
0.0139681
0.0152652
0.0176987
0.019746
0.0202671
0.0184116
0.0135858
0.00658701
0.0118245
0.0294192
0.0529669
0.0821126
0.036661
0.0341262
0.0309431
0.0271594
0.0229387
0.0186621
0.0151335
0.0136436
0.0149682
0.0180655
0.0213373
0.0235775
0.0238834
0.0215073
0.0158118
0.00679458
0.0101616
0.029169
0.0540285
0.0844836
0.0342958
0.0311248
0.0273699
0.0231682
0.0188234
0.0150547
0.0132212
0.0144775
0.0180409
0.0222577
0.0258969
0.0280684
0.0280141
0.0250322
0.0184807
0.00795917
0.00867458
0.0291173
0.0553055
0.0870978
0.0311029
0.0273554
0.0231584
0.0187619
0.0148256
0.0127124
0.013886
0.0177896
0.022728
0.0274681
0.0311642
0.0330834
0.0325536
0.0288969
0.021487
0.0098316
0.00761041
0.0293241
0.056831
0.0899715
0.0271684
0.0229535
0.0185168
0.0144524
0.0121275
0.0132695
0.0174571
0.0229472
0.0285373
0.0334401
0.036986
0.0385277
0.0374275
0.033035
0.0247423
0.0121551
0.00732045
0.0298494
0.0586369
0.0931248
0.0266841
0.0291731
0.0323423
0.0354248
0.0371964
0.0363454
0.0321559
0.0252214
0.019675
0.0136778
0.0205041
0.0247377
0.0284989
0.0311115
0.0319227
0.0302213
0.0258511
0.0202011
0.0165633
0.010776
0.0133811
0.0185375
0.0227075
0.0252336
0.0259378
0.0248008
0.0223823
0.0200335
0.0182569
0.0120008
0.0063877
0.0116788
0.0160775
0.0188205
0.0201115
0.020409
0.0203284
0.0201601
0.0180582
0.0116434
0.00326173
0.00526437
0.0096018
0.012679
0.0148483
0.0165928
0.0181029
0.0186547
0.0160261
0.0108157
0.00812834
0.00412497
0.00512664
0.00780956
0.0104999
0.0131469
0.015399
0.0161339
0.0139269
0.0110296
0.0132167
0.00915841
0.00708004
0.00705292
0.00866857
0.0111274
0.0134453
0.0144563
0.0136492
0.0131356
0.0174786
0.0142
0.0120065
0.010818
0.0108522
0.0121399
0.0139526
0.0152979
0.0159125
0.016782
0.0208701
0.0185682
0.0168968
0.0157189
0.0152586
0.0157781
0.0170749
0.0185322
0.0198445
0.0211693
0.0234542
0.0221979
0.0212615
0.0204938
0.0201188
0.0204391
0.0214763
0.0228735
0.02433
0.0256767
0.025348
0.0251234
0.0249905
0.0248011
0.0247449
0.0251378
0.0260758
0.0273588
0.0286958
0.0298674
0.0266913
0.0274257
0.0280744
0.0284897
0.0288512
0.029411
0.0303216
0.0314449
0.032569
0.0334782
0.0276337
0.0292113
0.0305646
0.0315473
0.0323007
0.0330534
0.0339316
0.0348886
0.0357354
0.036311
0.0283046
0.0305693
0.0325114
0.0339737
0.0350655
0.035972
0.0368064
0.0375493
0.0380788
0.0382807
0.0288329
0.0316285
0.0340079
0.0358256
0.0371571
0.0381464
0.0388893
0.0393885
0.0395549
0.0393003
0.0293391
0.0324721
0.0351412
0.0371854
0.0386365
0.0396208
0.0402012
0.0403926
0.0401322
0.0393904
0.0299002
0.0331981
0.0359867
0.0381071
0.0395741
0.0404425
0.0407837
0.0405922
0.0398536
0.0385435
0.0305767
0.0338684
0.0366288
0.0386813
0.0400238
0.0406778
0.0406868
0.0400404
0.0387594
0.0368194
0.0313886
0.0345366
0.0371232
0.0389851
0.040079
0.0404042
0.0399782
0.0388124
0.0368976
0.0342628
0.0323602
0.0352258
0.0375151
0.0390642
0.0397982
0.0396972
0.0387646
0.036982
0.0343664
0.0309668
0.0352915
0.0319402
0.0304583
0.0330197
0.0403348
0.0525326
0.0741984
0.119553
0.21064
0.372166
0.0422042
0.0349988
0.0271184
0.0203939
0.0187608
0.0269221
0.0515365
0.106167
0.20945
0.384018
0.0490309
0.0431685
0.0370701
0.0323528
0.0305381
0.0345846
0.0565131
0.114172
0.224528
0.40819
0.0536752
0.0507673
0.049123
0.049788
0.0526898
0.0591794
0.0802106
0.137799
0.252064
0.442086
0.0549081
0.0553614
0.0583158
0.0636717
0.0705165
0.0805117
0.104944
0.166115
0.28525
0.480925
0.0523183
0.0564255
0.0633731
0.0720122
0.081431
0.0946419
0.124473
0.192483
0.318369
0.519724
0.0472538
0.0546732
0.064137
0.0741243
0.0845818
0.100781
0.137415
0.214186
0.347766
0.554434
0.0416066
0.0508856
0.0606349
0.0698273
0.0801158
0.0997344
0.144569
0.230701
0.3715
0.58214
0.0366201
0.0453127
0.0528751
0.0594226
0.0692024
0.0938387
0.147907
0.242506
0.388623
0.600922
0.032597
0.0381399
0.0413451
0.0439539
0.054459
0.0867337
0.149671
0.250239
0.398702
0.609637
0.233983
0.243962
0.251124
0.253939
0.251683
0.244524
0.231971
0.210846
0.178214
0.154504
0.129348
0.135297
0.139544
0.140599
0.137442
0.130231
0.119693
0.105812
0.0962736
0.137251
0.0498451
0.0509486
0.0507516
0.0479278
0.0416493
0.0341736
0.0354112
0.055899
0.101286
0.189265
0.015833
0.0184228
0.0211736
0.0248716
0.0318472
0.0455811
0.0687101
0.103947
0.159706
0.255524
0.0452129
0.0525645
0.0607088
0.0701138
0.0818143
0.0976627
0.120492
0.155065
0.211761
0.311269
0.0606171
0.0709036
0.0823097
0.0950678
0.10983
0.127931
0.151904
0.187077
0.245477
0.349902
0.0611589
0.073609
0.0871995
0.102069
0.118702
0.138178
0.162922
0.198865
0.259863
0.371084
0.0510171
0.0649668
0.0795084
0.095046
0.112107
0.131685
0.156299
0.192848
0.257531
0.377811
0.0395019
0.0514436
0.0642948
0.0783794
0.0941081
0.112343
0.135885
0.173222
0.243461
0.375478
0.0371903
0.0400265
0.0465936
0.0563116
0.068776
0.0843524
0.106393
0.145918
0.224827
0.371142
0.167405
0.163387
0.162686
0.162347
0.162375
0.162778
0.163574
0.164784
0.166437
0.168565
0.171203
0.174394
0.178177
0.182602
0.187721
0.193584
0.200223
0.207612
0.215595
0.223761
0.150764
0.143237
0.140469
0.137929
0.135618
0.133539
0.131696
0.130095
0.128741
0.127643
0.126806
0.126229
0.125907
0.125819
0.125928
0.126177
0.126485
0.126731
0.126723
0.126147
0.138746
0.127915
0.123557
0.119298
0.115143
0.111094
0.107148
0.103301
0.0995409
0.0958566
0.0922335
0.0886548
0.0850944
0.081513
0.0778428
0.0739838
0.0697895
0.0650692
0.0595723
0.0529442
0.130438
0.116598
0.111097
0.105581
0.100061
0.0945479
0.0890397
0.083525
0.0779847
0.0723893
0.0667097
0.0609125
0.0549689
0.0488519
0.0425319
0.0359801
0.0292086
0.0224369
0.0167946
0.0153987
0.124736
0.108427
0.102178
0.0958153
0.089366
0.0828536
0.0762875
0.0696607
0.0629482
0.0561132
0.0491066
0.0418791
0.0343999
0.0266674
0.0187727
0.0112478
0.00777371
0.0139904
0.0245244
0.0366259
0.120512
0.102579
0.0959039
0.089033
0.0820171
0.0749039
0.0677232
0.0604828
0.0531674
0.0457305
0.0381096
0.0302328
0.0220592
0.0136589
0.00594989
0.00753848
0.0166372
0.0270307
0.0385043
0.0505679
0.116774
0.0983409
0.091476
0.0843397
0.0770261
0.0696155
0.0621709
0.0547279
0.0472945
0.0398376
0.0322887
0.0245529
0.0165588
0.00848732
0.00451533
0.0121091
0.0217321
0.0317209
0.0419982
0.0517634
0.11277
0.0951696
0.0882497
0.0809925
0.0735545
0.0660516
0.058578
0.0512086
0.0439901
0.0369366
0.0300136
0.0231545
0.0163258
0.00986212
0.00667961
0.011618
0.0199065
0.0288719
0.0374207
0.0438784
0.107994
0.092756
0.085743
0.0784129
0.0709766
0.0635415
0.0562019
0.0490607
0.0422112
0.0357255
0.0296373
0.0239674
0.018823
0.0146897
0.0129189
0.014967
0.0201302
0.0265695
0.0320777
0.0351845
0.102172
0.091251
0.0834602
0.0760792
0.0688101
0.0615976
0.0544887
0.0475775
0.0409636
0.0347315
0.0289228
0.0235702
0.0188211
0.0152885
0.0144968
0.017713
0.024018
0.0311122
0.0347255
0.0346883
0.0947378
0.0876357
0.0804434
0.073529
0.0666303
0.0596856
0.0527224
0.0458193
0.0390672
0.0325526
0.0263307
0.0204439
0.0150285
0.0108009
0.0100767
0.0142787
0.0212429
0.0289499
0.0349308
0.0384421
0.0882326
0.083196
0.0776086
0.0718127
0.0658814
0.0598551
0.0537973
0.0478024
0.0419782
0.0364396
0.0312877
0.0266255
0.0226275
0.0197087
0.018707
0.0205314
0.025178
0.0316896
0.0388204
0.0463251
0.0829666
0.0789651
0.0745042
0.0697572
0.0648178
0.0597641
0.0546621
0.0496289
0.0447792
0.0402343
0.0361245
0.032583
0.0297701
0.0279525
0.0275671
0.0291111
0.0328025
0.0383706
0.0452242
0.0529934
0.0779855
0.0747435
0.0711993
0.0674015
0.0634125
0.0593131
0.0551709
0.0511016
0.0472098
0.0436234
0.0404879
0.0379261
0.0360752
0.0351218
0.0353134
0.0369225
0.040128
0.0448347
0.0506395
0.0569991
0.073013
0.0704478
0.0676994
0.0647619
0.0616682
0.0584858
0.0552736
0.0521162
0.0491374
0.0464486
0.0441843
0.0424603
0.0413707
0.0410574
0.0416423
0.0432507
0.0459654
0.0497169
0.054174
0.0587621
0.0679898
0.066055
0.0640269
0.0618777
0.0596294
0.0573028
0.0549549
0.0526686
0.0505364
0.04866
0.0471586
0.0461155
0.0456205
0.0457302
0.0465054
0.047958
0.0500828
0.0527943
0.0558457
0.0587722
0.0629365
0.0615882
0.0602265
0.0588219
0.0573364
0.0558154
0.0542754
0.0527861
0.0514274
0.0502794
0.049422
0.0489316
0.048861
0.0492155
0.0499877
0.0511305
0.0525832
0.0542425
0.0559383
0.0573968
0.0578937
0.057103
0.0563737
0.0556477
0.0548984
0.0541104
0.0533247
0.0525685
0.0518876
0.0513689
0.0510501
0.0509871
0.0511837
0.0516258
0.0522462
0.0529632
0.0536809
0.0543042
0.0547804
0.05503
0.0529346
0.0526681
0.0525381
0.0524577
0.0523822
0.0522904
0.0521804
0.052085
0.052016
0.0520258
0.0521479
0.0523855
0.0527317
0.0531156
0.0534784
0.0536781
0.0536477
0.0533267
0.0527491
0.0520401
0.0481211
0.0483637
0.0487996
0.049336
0.0498912
0.0504471
0.0509587
0.0514449
0.0519036
0.0523625
0.05282
0.0532652
0.0536411
0.0538828
0.0538893
0.0535418
0.0527888
0.0516234
0.0502174
0.048797
0.0435358
0.0442644
0.045256
0.0463739
0.0475249
0.0486662
0.0497395
0.0507416
0.0516574
0.0524903
0.0531939
0.0537539
0.0540845
0.0541022
0.0537127
0.0528241
0.0514147
0.0495789
0.0475556
0.0457092
0.039244
0.0404575
0.0419875
0.0436583
0.0453755
0.0470436
0.0486225
0.0500691
0.0513767
0.0524863
0.0533776
0.0539851
0.054218
0.0539807
0.0532052
0.0518187
0.0498897
0.0475656
0.0451732
0.043134
0.0353526
0.0370437
0.0390917
0.0412899
0.0435063
0.0456638
0.0476756
0.0495104
0.0511225
0.0524717
0.0534872
0.0540958
0.0541978
0.053723
0.0526
0.0508341
0.0485386
0.0459647
0.0434551
0.0414447
0.031958
0.0341208
0.0366546
0.0393412
0.0420073
0.0445784
0.0469639
0.0491175
0.0509864
0.0525122
0.0536071
0.0542053
0.0541961
0.0535149
0.0521553
0.0501663
0.0477403
0.0451491
0.0427614
0.0409171
0.0291768
0.0317867
0.0347718
0.0378717
0.0409338
0.043844
0.0465492
0.0489611
0.0510318
0.0526975
0.0538578
0.0544323
0.0543474
0.0535637
0.0521079
0.0501003
0.0477648
0.0454115
0.0433247
0.0417114
0.0271359
0.0301291
0.0334856
0.0369316
0.0403046
0.0435019
0.0464512
0.0490726
0.0513048
0.0530721
0.0542968
0.0548814
0.0547895
0.0540152
0.0526395
0.0508328
0.0488372
0.0468993
0.0452106
0.0438021
0.0259245
0.0292162
0.0328471
0.0365474
0.0401577
0.0435685
0.0466981
0.049484
0.0518441
0.0537137
0.0550042
0.0556485
0.0556453
0.0550167
0.0539017
0.052497
0.0510104
0.0496118
0.048324
0.0470206
0.0255914
0.0290609
0.0328624
0.0367197
0.040484
0.0440379
0.0473079
0.0502104
0.0526822
0.0546443
0.056032
0.056796
0.0569746
0.0566353
0.0559495
0.0550981
0.0542315
0.0533848
0.0524355
0.0511602
0.026099
0.0296224
0.033477
0.0374166
0.0412595
0.0449034
0.0482717
0.0512699
0.0538447
0.0559071
0.0574208
0.0583776
0.0588269
0.0589005
0.0587599
0.0585558
0.0583256
0.0579911
0.0573103
0.0559912
0.0273341
0.0308169
0.0346518
0.0385824
0.0424591
0.0461509
0.0495761
0.0526654
0.055323
0.0575081
0.0591884
0.0603974
0.0612098
0.0617772
0.0622542
0.0627086
0.0630893
0.0631947
0.0627068
0.0612973
0.0353678
0.0470066
0.0565352
0.0601302
0.0582178
0.0517373
0.0426556
0.0336698
0.027551
0.0256061
0.0524412
0.06354
0.0697702
0.0683895
0.0617686
0.0518525
0.0402169
0.0287607
0.0201964
0.0176914
0.0594906
0.0653313
0.0694882
0.0685266
0.0621006
0.0520292
0.0400102
0.0275644
0.016553
0.0107452
0.0622718
0.0643787
0.0657986
0.0650325
0.0601581
0.0516131
0.040708
0.0288235
0.0172772
0.00776341
0.0625241
0.0626355
0.0618585
0.0605352
0.0569433
0.0503289
0.0412534
0.0308364
0.0202713
0.0106144
0.0610952
0.0601502
0.0581133
0.0562124
0.0534047
0.0484588
0.0412418
0.0325383
0.0234726
0.0150494
0.058515
0.0570039
0.0544838
0.0523212
0.0500041
0.0462716
0.0406032
0.0335094
0.0259774
0.0189718
0.055209
0.0534608
0.0509484
0.0488537
0.0468656
0.0439121
0.0394117
0.0336842
0.0275788
0.0219887
0.0515803
0.0498128
0.0475975
0.0457365
0.0439798
0.041485
0.037782
0.0331382
0.0283235
0.0241003
0.0479887
0.0463857
0.044573
0.0429787
0.041328
0.0390348
0.0358322
0.0320403
0.0283463
0.0254177
0.0447779
0.0434417
0.0420079
0.0405955
0.0389082
0.0366217
0.0336861
0.0305385
0.0278435
0.026114
0.0422556
0.0412124
0.040038
0.0386265
0.0367469
0.0342931
0.0314671
0.0288091
0.0269828
0.0263503
0.040704
0.0398669
0.0387486
0.0371223
0.0348785
0.0321279
0.0292953
0.0270231
0.0259701
0.0263191
0.0402745
0.039492
0.0381703
0.0361168
0.033369
0.0302272
0.0273013
0.0253501
0.0249876
0.0261866
0.041043
0.0400689
0.0383072
0.0356502
0.0322753
0.0286819
0.0256196
0.0239558
0.0241933
0.0260917
0.0429323
0.0415418
0.0391451
0.0357511
0.0316878
0.0276038
0.0244007
0.0229834
0.0237378
0.0261655
0.0457989
0.0438106
0.0406445
0.0364435
0.031674
0.0271173
0.0237656
0.0225589
0.0237132
0.0264943
0.0494722
0.0467728
0.0427759
0.0377588
0.0323109
0.0273135
0.0238396
0.0227775
0.024166
0.0271092
0.0537859
0.0503292
0.0455186
0.0397421
0.0336804
0.0282985
0.0246888
0.0236808
0.0251238
0.0280321
0.0585873
0.0544092
0.0488668
0.0424249
0.0358458
0.0301196
0.0263492
0.0252473
0.0265668
0.0292639
)
;

boundaryField
{
    down
    {
        type            symmetryPlane;
    }
    right
    {
        type            calculated;
        value           nonuniform List<scalar> 
30
(
0.0932498
0.0867832
0.0814122
0.0770237
0.0734905
0.0706845
0.0684966
0.0668421
0.0656507
0.0648459
0.0645917
0.06478
0.0651757
0.0657441
0.0664574
0.0672989
0.0682481
0.0693025
0.0704551
0.0717126
0.0730827
0.0745747
0.0762042
0.0779932
0.0799534
0.0821126
0.0844836
0.0870978
0.0899715
0.0931248
)
;
    }
    up
    {
        type            symmetryPlane;
    }
    left
    {
        type            calculated;
        value           uniform 0;
    }
    cylinder
    {
        type            symmetry;
    }
    defaultFaces
    {
        type            empty;
    }
}


// ************************************************************************* //
