/*--------------------------------*- C++ -*----------------------------------*\
| =========                 |                                                 |
| \\      /  F ield         | OpenFOAM: The Open Source CFD Toolbox           |
|  \\    /   O peration     | Version:  2112                                  |
|   \\  /    A nd           | Website:  www.openfoam.com                      |
|    \\/     M anipulation  |                                                 |
\*---------------------------------------------------------------------------*/
FoamFile
{
    version     2.0;
    format      ascii;
    arch        "LSB;label=32;scalar=64";
    class       volScalarField;
    location    "0";
    object      error_Phi;
}
// * * * * * * * * * * * * * * * * * * * * * * * * * * * * * * * * * * * * * //

dimensions      [0 2 -1 0 0 0 0];

internalField   nonuniform List<scalar> 
2000
(
0.154333
0.123818
0.100004
0.0810658
0.0657186
0.0530374
0.04239
0.0332879
0.0254352
0.0185756
0.14084
0.113334
0.092003
0.0751231
0.0614834
0.0502374
0.0407583
0.0326304
0.0255395
0.0192701
0.125336
0.100909
0.0821128
0.0673475
0.0554854
0.0457378
0.0375217
0.0304532
0.0242484
0.0186914
0.108018
0.0867311
0.0705085
0.0579069
0.0478824
0.0397034
0.0328302
0.0269198
0.0217078
0.0170172
0.0891011
0.0709908
0.0573953
0.0469978
0.0388489
0.0322841
0.0268162
0.0221227
0.0179881
0.014254
0.0688179
0.053931
0.0429908
0.0348295
0.0285828
0.023663
0.0196252
0.0161965
0.01318
0.0104453
0.0474156
0.0357686
0.0275087
0.0216093
0.0172919
0.0140353
0.0114661
0.00933007
0.00744809
0.00571772
0.025124
0.0167656
0.0112107
0.00757568
0.00521836
0.00364318
0.00255686
0.00171269
0.000978453
0.000258857
0.00220421
0.00283138
0.00566378
0.0069919
0.0073923
0.0072561
0.00686836
0.0064
0.00598765
0.00570003
0.0210833
0.0227749
0.0228422
0.0218597
0.0202695
0.0184209
0.0165332
0.0147737
0.0132345
0.0119679
0.153737
0.095474
0.04898
0.011732
0.0180881
0.0418866
0.0607137
0.0754204
0.0866585
0.094937
0.164977
0.109581
0.0654654
0.0301651
0.00185846
0.0208042
0.0388505
0.0530816
0.064109
0.0723985
0.174035
0.12139
0.079553
0.0460715
0.0191692
0.00246651
0.0198102
0.0336386
0.0445145
0.0528668
0.180679
0.130732
0.0910814
0.0593489
0.0337917
0.0131441
0.00353678
0.0169833
0.0277088
0.036129
0.184749
0.137475
0.0999896
0.0699868
0.0457572
0.0260902
0.0100719
0.00295048
0.0135043
0.0219475
0.186177
0.141573
0.106263
0.0779835
0.055097
0.0364459
0.0211512
0.00858498
0.00170826
0.0100849
0.184939
0.143044
0.109923
0.0833954
0.0619022
0.0443064
0.0297898
0.0177743
0.00783179
0.000350266
0.181049
0.141901
0.111021
0.0863093
0.0662461
0.049771
0.0361123
0.0247274
0.0152313
0.00734212
0.17458
0.138246
0.109658
0.0867968
0.0682387
0.0529574
0.0402242
0.0295278
0.0205124
0.012954
0.165634
0.132168
0.105936
0.0850113
0.0680239
0.0539997
0.0422595
0.0323097
0.0237908
0.0164439
0.100944
0.104967
0.106856
0.106814
0.105016
0.101623
0.0967825
0.0906248
0.083273
0.0748359
0.0654164
0.055105
0.0439887
0.0321467
0.0196534
0.00657826
0.00701356
0.0210629
0.03551
0.0503018
0.0791013
0.0844089
0.0875923
0.0888293
0.0882826
0.0861007
0.0824202
0.0773671
0.0710589
0.0636042
0.0551028
0.0456512
0.0353385
0.0242497
0.0124633
5.67959e-05
0.0129011
0.0263454
0.0402138
0.0544495
0.0601716
0.0665558
0.0708528
0.0732167
0.0737912
0.0727065
0.070085
0.0660425
0.0606864
0.0541194
0.0464412
0.0377473
0.0281299
0.01768
0.00648304
0.00538004
0.017834
0.030806
0.0442331
0.0580527
0.0439159
0.0511704
0.0564111
0.0597603
0.061337
0.0612489
0.0595987
0.0564828
0.0519963
0.046233
0.0392878
0.0312575
0.0222373
0.0123218
0.00160221
0.00983281
0.0218998
0.0345232
0.0476321
0.0611623
0.030068
0.0379938
0.0440182
0.0482297
0.0507101
0.0515374
0.0507853
0.0485245
0.0448337
0.0397964
0.0335027
0.0260491
0.0175335
0.00805573
0.0022851
0.0133942
0.0251818
0.0375648
0.0504673
0.0638214
0.018354
0.0267534
0.0334219
0.0383967
0.04171
0.0433902
0.0434721
0.0420005
0.0390349
0.034651
0.0289341
0.021979
0.0138879
0.00476614
0.00528314
0.0161551
0.0277548
0.0399923
0.0527864
0.0660643
0.00852329
0.0171951
0.0243931
0.0300632
0.034152
0.0366237
0.0374729
0.0367199
0.0344125
0.030616
0.0254127
0.018896
0.0111675
0.00233681
0.00748759
0.0181959
0.0296849
0.0418565
0.0546264
0.0679156
0.000441719
0.00914974
0.0167854
0.0230777
0.0278533
0.0310202
0.0325474
0.0324395
0.0307317
0.0274786
0.0227528
0.0166405
0.00923971
0.000658894
0.00898772
0.0195857
0.031023
0.0431972
0.0560135
0.0693901
0.00574798
0.00270311
0.0105729
0.0172784
0.0225494
0.026267
0.0283776
0.0288633
0.0277338
0.0250196
0.0207726
0.0150638
0.0079839
0.000361262
0.00985662
0.0203791
0.0318118
0.0440403
0.0569645
0.0704946
0.00952788
0.00174213
0.00565187
0.012294
0.017809
0.021959
0.0246182
0.0257077
0.0251872
0.0230504
0.0193174
0.0140426
0.00730282
0.000802
0.010153
0.0206236
0.0320826
0.0444089
0.0574898
0.0712291
0.00804846
0.00151273
0.00480377
0.0106363
0.0156452
0.0195488
0.0221533
0.0233229
0.0229723
0.0210574
0.0175708
0.0125432
0.0060342
0.00186555
0.0110422
0.0213708
0.0327211
0.0449668
0.057996
0.0717092
0.00415668
0.00120363
0.00649198
0.0113759
0.0155687
0.0188118
0.0209114
0.0217196
0.0211322
0.0190869
0.0155599
0.0105661
0.00415336
0.00359985
0.0125911
0.0227017
0.0338111
0.0457988
0.0585602
0.0720019
0.000561914
0.00388494
0.00831346
0.0124247
0.0159291
0.0186019
0.0202456
0.0207107
0.0198851
0.0176944
0.0141048
0.00911826
0.00277196
0.00486369
0.013696
0.0236159
0.0345081
0.0462617
0.0587765
0.0719671
0.00265774
0.00644379
0.0102211
0.0136952
0.0166309
0.0188171
0.0200596
0.0202111
0.0191586
0.0168221
0.0131588
0.00816306
0.00186472
0.00567482
0.0143699
0.0241181
0.0348126
0.0463502
0.0586364
0.071593
0.0055942
0.00890215
0.0121664
0.0151484
0.0176178
0.0193865
0.020281
0.0201546
0.0188939
0.0164183
0.0126793
0.00766722
0.00140586
0.00605037
0.0146208
0.0242126
0.034724
0.0460585
0.0581309
0.0708672
0.00833197
0.0112936
0.014162
0.0167453
0.0188291
0.020257
0.0208555
0.0204878
0.0190431
0.0164415
0.0126329
0.00760456
0.00137567
0.00600228
0.0144579
0.0239017
0.0342401
0.0453842
0.0572519
0.0697785
0.01096
0.0136448
0.0162124
0.0184682
0.0202546
0.021393
0.0217431
0.0211713
0.0195697
0.0168599
0.0129923
0.00795295
0.00175841
0.00554465
0.0138881
0.0231894
0.0333617
0.0443197
0.0559923
0.068317
0.0135325
0.0160068
0.0183254
0.0203319
0.021856
0.0227705
0.0229164
0.0221744
0.0204434
0.017646
0.0137347
0.00869323
0.00253907
0.00468597
0.0129181
0.0220787
0.0320875
0.0428651
0.0543465
0.0664747
0.0160802
0.0183858
0.020513
0.022314
0.0236469
0.0243709
0.0243531
0.0234762
0.0216424
0.0187785
0.0148394
0.0098103
0.00370338
0.00343822
0.0115542
0.0205738
0.0304184
0.041018
0.0523111
0.0642457
0.0186403
0.0208034
0.0227816
0.0244261
0.0256034
0.0261864
0.0260403
0.0250593
0.0231503
0.0202428
0.0162935
0.0112881
0.00524182
0.00180891
0.00980422
0.0186775
0.0283586
0.0387799
0.0498846
0.0616269
0.0212265
0.023297
0.0251524
0.0266832
0.027735
0.0282083
0.0279672
0.0269116
0.0249516
0.0220226
0.0180816
0.0131169
0.0071417
0.000192984
0.0076749
0.0163985
0.025911
0.0361523
0.0470681
0.0586178
0.0238793
0.0258698
0.0276414
0.0290745
0.0300439
0.0304331
0.0301264
0.0290219
0.0270368
0.0241063
0.0201933
0.0152852
0.00939435
0.00255717
0.00517545
0.0137422
0.0230825
0.0331397
0.0438658
0.0552203
0.026596
0.0285306
0.0302396
0.0316132
0.0325256
0.0328588
0.0325112
0.0313846
0.0293958
0.0264855
0.0226172
0.0177802
0.0119873
0.0052732
0.0023145
0.0107185
0.0198816
0.0297509
0.0402819
0.0514392
0.02941
0.0313041
0.0329728
0.0343064
0.0351788
0.0354835
0.0351205
0.0339923
0.0320215
0.0291497
0.025344
0.0205938
0.0149113
0.00833072
0.000897171
0.0073359
0.0163153
0.0259928
0.0363258
0.0472812
0.0323305
0.0341999
0.0358414
0.0371553
0.0380054
0.038308
0.0379489
0.0368395
0.0349045
0.0320905
0.0283632
0.0237142
0.0181551
0.0117187
0.00444788
0.0036067
0.0123976
0.0218769
0.0320068
0.0427556
0.0353827
0.0372328
0.0388699
0.0401644
0.0410202
0.0413324
0.0409949
0.0399211
0.03804
0.0352983
0.0316645
0.0271294
0.021707
0.0154248
0.00832634
0.000455907
0.00813853
0.0174151
0.0273363
0.0378734
0.0385665
0.0404222
0.042047
0.0433518
0.0442206
0.0445568
0.0442553
0.0432339
0.0414209
0.038766
0.0352377
0.0308301
0.0255537
0.0194363
0.0125169
0.00483827
0.00355368
0.0126217
0.0223282
0.0326472
0.0419067
0.0437614
0.0453948
0.0467186
0.0476071
0.0479797
0.047728
0.0467701
0.0450385
0.0424826
0.0390735
0.0348036
0.0296829
0.023739
0.0170059
0.0095266
0.00134216
0.0075104
0.016997
0.027091
0.0454218
0.0472774
0.0489189
0.0502588
0.051192
0.0516014
0.0514081
0.0505257
0.0488854
0.0464397
0.0431597
0.039037
0.0340812
0.0283177
0.0217789
0.0145052
0.0065343
0.00209769
0.0113579
0.0212198
0.0491141
0.0509703
0.0526275
0.0539889
0.0549602
0.0554211
0.0552943
0.0544942
0.0529556
0.0506282
0.0474852
0.0435183
0.0387347
0.0331589
0.02682
0.0197569
0.0120054
0.00360113
0.00542601
0.0150491
0.011095
0.00582225
0.000837027
0.00366966
0.00751186
0.0105222
0.0125605
0.0135572
0.0135773
0.0126422
0.0105548
0.00618763
0.00209483
0.00159905
0.00474194
0.00717389
0.00872619
0.00925741
0.00869037
0.00749606
0.0102722
0.00663843
0.00328583
0.000287764
0.00221474
0.00407839
0.00511623
0.00521549
0.004397
0.00324126
0.010249
0.00722286
0.00449262
0.00210607
0.000176849
0.00114675
0.00174908
0.00155603
0.000726537
0.000319592
0.0104745
0.00794777
0.00573838
0.00389375
0.00248409
0.00161509
0.00137216
0.00173109
0.0025051
0.00346532
0.0109277
0.00883047
0.0070679
0.00567169
0.00471265
0.00422657
0.00425016
0.00471173
0.00546709
0.00636872
0.0115892
0.00986003
0.00847833
0.0074741
0.00687253
0.00670237
0.00693351
0.00747788
0.00823458
0.00911804
0.012453
0.0110283
0.00996976
0.00928868
0.00898801
0.00907229
0.00946658
0.0101078
0.0108892
0.0117878
0.0134867
0.0123308
0.0115457
0.0111369
0.0110877
0.011361
0.0119093
0.0126358
0.013479
0.0144095
0.0146824
0.0137568
0.0132037
0.013014
0.0131643
0.0136181
0.014287
0.0151122
0.0160387
0.0170112
0.0160366
0.01532
0.0149549
0.0149495
0.015265
0.0158578
0.0166504
0.0175833
0.0185893
0.0196283
0.0175405
0.0169983
0.016795
0.0169468
0.0174012
0.0181188
0.0190249
0.0200609
0.0211681
0.0222828
0.0191992
0.0188038
0.0187436
0.0190235
0.0195983
0.0204245
0.0214413
0.0225822
0.0237885
0.0249934
0.0210019
0.0207425
0.0208041
0.021201
0.021876
0.0228026
0.0239249
0.0251698
0.0264694
0.0277753
0.0229612
0.0228139
0.0229939
0.0234746
0.0242479
0.0252647
0.0264853
0.0278309
0.0292455
0.0306596
0.0250926
0.0250408
0.0253133
0.0258831
0.0267411
0.0278465
0.0291467
0.0305977
0.0321164
0.0336529
0.027394
0.0274385
0.0277857
0.0284281
0.029356
0.0305373
0.0319368
0.0334764
0.0351163
0.0367773
0.0298753
0.029995
0.0304172
0.0311342
0.0321259
0.0333792
0.0348568
0.0365069
0.0382638
0.0400492
0.0325684
0.0327498
0.0332257
0.0339981
0.0350567
0.0363873
0.037941
0.0396927
0.0415609
0.043489
0.0354761
0.0357039
0.0362309
0.0370585
0.0381761
0.0395689
0.0412062
0.0430498
0.0450429
0.0471107
0.073278
0.0808612
0.0901323
0.101363
0.11487
0.130975
0.150008
0.172323
0.198346
0.228747
0.0684226
0.0756144
0.0843863
0.0950009
0.107733
0.122858
0.140639
0.161311
0.185239
0.212975
0.062712
0.0694602
0.0776886
0.0876329
0.0995281
0.113588
0.129988
0.148908
0.170581
0.195468
0.0566313
0.0628388
0.0704471
0.0796452
0.0906218
0.103507
0.118403
0.135406
0.154662
0.176518
0.0503378
0.0559837
0.0629204
0.0713135
0.0812624
0.0928475
0.106097
0.121031
0.137715
0.156395
0.0439663
0.0490286
0.0552627
0.0627586
0.0715796
0.0817349
0.0932105
0.105935
0.119926
0.135289
0.0375785
0.0420324
0.0474892
0.0539965
0.0615798
0.0701985
0.0797779
0.090213
0.101407
0.113388
0.0311843
0.0349659
0.0395697
0.0450083
0.0512492
0.0582418
0.0658488
0.0739251
0.0822974
0.0908417
0.0247752
0.0278107
0.0314686
0.0357349
0.0405768
0.0458701
0.0514784
0.0571753
0.0627165
0.0678175
0.0183654
0.0205419
0.0231729
0.0262137
0.0295859
0.0331642
0.0367619
0.0400884
0.0428028
0.0445027
0.03003
0.0170242
0.000979802
0.0185236
0.041944
0.0696943
0.102201
0.139949
0.183709
0.234773
0.00271215
0.00913664
0.0238121
0.041751
0.0634511
0.0894288
0.120197
0.156323
0.198565
0.248125
0.0205715
0.0316
0.0452588
0.0619749
0.0822336
0.106608
0.135674
0.170091
0.21062
0.258461
0.0396357
0.050067
0.0629582
0.0787108
0.0977949
0.120776
0.148281
0.181005
0.21975
0.265687
0.0545778
0.0645297
0.0768022
0.0917561
0.109851
0.131644
0.157736
0.188843
0.225787
0.269707
0.0656459
0.0751465
0.0868619
0.10112
0.118354
0.139075
0.163887
0.193466
0.228627
0.270475
0.0731498
0.0821904
0.0933472
0.106943
0.123381
0.143135
0.166754
0.194882
0.228273
0.267998
0.0773734
0.0859162
0.09654
0.109509
0.12518
0.144014
0.166489
0.193196
0.224828
0.262364
0.0784719
0.0866215
0.0967492
0.109124
0.124082
0.142008
0.163356
0.188646
0.218484
0.253765
0.076728
0.0846897
0.0944182
0.10624
0.120477
0.137511
0.157726
0.181565
0.20955
0.242462
0.0175587
0.00756435
0.00203414
0.0111676
0.019815
0.0279226
0.0354341
0.0422994
0.0484446
0.053801
0.0582853
0.0618097
0.0642629
0.0655414
0.0655107
0.0640571
0.0610278
0.0562599
0.0495671
0.040745
0.0335398
0.0240923
0.0150757
0.0065375
0.00149287
0.00896386
0.0158313
0.022038
0.0275125
0.0321993
0.0360078
0.0388528
0.0406348
0.0412613
0.0405984
0.038523
0.0348939
0.0295528
0.0223533
0.0130983
0.0478154
0.0387841
0.0302209
0.0221426
0.0145977
0.0076263
0.00128087
0.00438318
0.00931683
0.0134367
0.0166847
0.0189675
0.020207
0.0202814
0.0190966
0.0165186
0.0124255
0.00667914
0.000893773
0.0104331
0.0604847
0.0517509
0.0434943
0.0357516
0.0285708
0.0219714
0.0160247
0.0107748
0.00626886
0.00257842
0.000220291
0.00206576
0.00286129
0.00251574
0.000925041
0.00200559
0.00641908
0.012424
0.020163
0.0297723
0.071648
0.0630859
0.0550318
0.0475127
0.0405669
0.0342335
0.0285633
0.0235994
0.0194079
0.0160286
0.0135562
0.0120305
0.0115569
0.0122157
0.0140805
0.0172563
0.021836
0.0279281
0.0356439
0.0450869
0.0814107
0.0729278
0.064965
0.0575605
0.050753
0.0445721
0.0390684
0.0342946
0.0302956
0.0271303
0.0248518
0.0235386
0.0232748
0.0241195
0.0261658
0.0294679
0.034108
0.0401434
0.0476428
0.0566763
0.0898796
0.0813757
0.0734157
0.0660392
0.0592861
0.0531766
0.0477617
0.0430739
0.0391776
0.0361107
0.0339451
0.0327282
0.0325428
0.0334771
0.0355732
0.0389044
0.0435014
0.0493793
0.056524
0.0649017
0.0971311
0.0885377
0.0805135
0.0730999
0.0663287
0.060221
0.0548286
0.0501741
0.0463117
0.0432786
0.0411257
0.0399194
0.0397216
0.0405998
0.0426253
0.0458505
0.0502848
0.055911
0.0625826
0.0700745
0.103271
0.0945095
0.0863643
0.078859
0.0720271
0.0658816
0.0604653
0.0558112
0.0519436
0.0488989
0.0467277
0.0454656
0.0451839
0.04592
0.0477352
0.0506719
0.0547391
0.0598789
0.0659049
0.0722558
0.108354
0.0993458
0.0910416
0.0834282
0.0765116
0.0703169
0.0648583
0.0601694
0.0562848
0.0532208
0.0510075
0.0497003
0.049311
0.0498776
0.0514233
0.0539422
0.0573755
0.0615877
0.0662777
0.0711757
0.112027
0.103149
0.0949335
0.0873696
0.0804739
0.0742814
0.0688061
0.0640603
0.0600866
0.0568883
0.0544816
0.0528874
0.052113
0.0521526
0.0530063
0.0546074
0.0568583
0.0595875
0.0625598
0.0656051
0.11471
0.10623
0.0982731
0.0909059
0.084144
0.0780108
0.0725379
0.0677351
0.063621
0.0602041
0.0574843
0.0554548
0.0541043
0.0534284
0.0533896
0.0539165
0.0549299
0.0562801
0.0577854
0.0592454
0.116785
0.108607
0.100899
0.0936973
0.0870559
0.0809867
0.0755193
0.0706611
0.0664079
0.0627843
0.0597552
0.0573279
0.0554745
0.0541634
0.0533513
0.0529927
0.0529875
0.0532276
0.0535735
0.0538343
0.11826
0.110349
0.102854
0.0958306
0.0893
0.083293
0.0778279
0.0729101
0.0685432
0.0647188
0.0614183
0.0586448
0.0563352
0.0544829
0.05304
0.051948
0.0511358
0.0505161
0.0499804
0.0493955
0.119153
0.111488
0.104213
0.0973509
0.0909438
0.0850005
0.0795476
0.0745795
0.0700977
0.0661021
0.0625718
0.0594868
0.0568108
0.0545039
0.0525449
0.0508629
0.0494256
0.0481655
0.0469929
0.0458304
0.119507
0.112085
0.105017
0.0983231
0.0920243
0.0861582
0.0807204
0.0757239
0.0711593
0.0670253
0.0632996
0.0599608
0.0569708
0.0543076
0.0519284
0.0498
0.0478985
0.0461644
0.044545
0.0429964
0.119362
0.112184
0.105321
0.0987927
0.0926187
0.0868355
0.0814276
0.0764172
0.0717944
0.0675474
0.0636635
0.0601111
0.0568816
0.0539323
0.051249
0.0487972
0.0465503
0.044485
0.0425634
0.0407534
0.118744
0.111819
0.105161
0.098807
0.0927756
0.0870724
0.081721
0.0767134
0.0720493
0.0677172
0.0637149
0.0600214
0.0566087
0.0534544
0.0505437
0.0478502
0.0453739
0.0430963
0.0409919
0.039019
0.117721
0.11104
0.104596
0.0984254
0.0925355
0.0869307
0.0816442
0.0766578
0.0719815
0.0676145
0.0635358
0.0597259
0.0561881
0.0528909
0.0498391
0.0470043
0.044392
0.0419768
0.0397642
0.0377117
0.116323
0.109897
0.103677
0.09768
0.0919412
0.0864644
0.0812527
0.0763177
0.0716602
0.0672707
0.0631499
0.0592903
0.055677
0.0522998
0.0491632
0.0462558
0.0435781
0.0411164
0.0388559
0.0367829
0.114593
0.108422
0.102428
0.0966351
0.091058
0.0857102
0.0805944
0.0757327
0.071107
0.0667394
0.0626128
0.0587421
0.0551047
0.0517012
0.0485455
0.045623
0.0429379
0.0404873
0.0382356
0.0361782
0.112587
0.106673
0.100915
0.0953276
0.0899237
0.0847167
0.0797194
0.0749447
0.0703957
0.0660765
0.0619826
0.0581313
0.0545122
0.0511367
0.0480075
0.045126
0.0424892
0.0400846
0.0378957
0.0358777
0.110352
0.104696
0.0991768
0.0937965
0.0885783
0.0835352
0.0786804
0.0740179
0.0695623
0.0653201
0.0612992
0.0575096
0.0539526
0.05065
0.0475926
0.044787
0.0422323
0.0399164
0.0378123
0.0358758
0.107919
0.102533
0.0972533
0.0921028
0.0870835
0.0822086
0.0775118
0.0729784
0.0686449
0.0645201
0.0605945
0.0569104
0.0534605
0.0502564
0.0473158
0.0446398
0.0421997
0.0400035
0.0380047
0.0361612
0.105337
0.100233
0.0952063
0.0902789
0.0854628
0.0807916
0.0762597
0.071894
0.067713
0.0637179
0.0599317
0.0563785
0.0530718
0.0500118
0.0472228
0.0446897
0.0424054
0.0403489
0.0384751
0.0367458
0.102658
0.0978189
0.0930486
0.0883685
0.083781
0.0793201
0.0749816
0.0708038
0.0667875
0.0629662
0.0593551
0.0559694
0.0528327
0.0499531
0.0473503
0.0449926
0.0428846
0.0409772
0.039248
0.0376442
0.0999062
0.0953544
0.090854
0.0864262
0.0820736
0.077831
0.0737157
0.0697377
0.0659301
0.0623083
0.0588893
0.055719
0.0527899
0.050127
0.0477248
0.0455747
0.0436533
0.0419242
0.0403493
0.038883
0.0971434
0.0928726
0.0886467
0.084477
0.0803868
0.0763819
0.0725011
0.0687564
0.0651829
0.0617878
0.0586092
0.0556629
0.0529794
0.0505497
0.0483925
0.0464618
0.0447573
0.043216
0.0418158
0.0404896
0.0943832
0.0904073
0.0864712
0.0825764
0.0787473
0.0750107
0.0713872
0.0679007
0.0645781
0.0614482
0.0585394
0.0558665
0.0534469
0.0512969
0.0493887
0.0477094
0.046222
0.0448985
0.0436642
0.042492
0.0916887
0.0880023
0.084352
0.0807501
0.0772116
0.0737553
0.0704133
0.0672113
0.064178
0.0613428
0.0587239
0.056354
0.0542368
0.0523828
0.0507576
0.0493515
0.0481019
0.0469871
0.0459509
0.0449478
0.0657117
0.0612041
0.0561366
0.0507183
0.0450672
0.0392904
0.0335027
0.0277612
0.0221092
0.0165462
0.0580536
0.054188
0.0500552
0.0453926
0.0403656
0.0351735
0.0299621
0.0248476
0.0198927
0.0151275
0.0519881
0.0484536
0.0449139
0.0409297
0.0365299
0.031897
0.0272187
0.0226334
0.018263
0.0141418
0.047292
0.0439831
0.0407486
0.0372562
0.0334119
0.0293089
0.0251168
0.0210189
0.0171372
0.0135536
0.0436223
0.0405167
0.0374788
0.0343361
0.030932
0.0272963
0.0235491
0.0198819
0.0164389
0.0133039
0.0407446
0.037839
0.0349833
0.0320849
0.0290235
0.0257789
0.02244
0.0191713
0.0161123
0.0133537
0.0385103
0.0358048
0.0331234
0.0304323
0.0276339
0.0247106
0.0217281
0.0188095
0.0160945
0.013676
0.0368106
0.0342815
0.0317849
0.0292734
0.0266965
0.0240407
0.0213569
0.0187536
0.0163466
0.0142277
0.0355595
0.0332109
0.0308792
0.0285386
0.0261597
0.0237336
0.0213152
0.0189858
0.0168546
0.0149998
0.0346951
0.0325101
0.0303427
0.0281638
0.0259671
0.0237386
0.0215466
0.0194633
0.0175797
0.0159683
0.0341808
0.032151
0.030137
0.0281192
0.0260763
0.0240394
0.0220492
0.0201781
0.0185076
0.0171138
0.0339746
0.0321006
0.0302378
0.028359
0.0264687
0.0245929
0.0227847
0.021106
0.0196386
0.0184314
0.0340795
0.0323398
0.0306144
0.0288803
0.0271281
0.0254091
0.0237579
0.0222567
0.020957
0.0199205
0.0344723
0.0328731
0.0312791
0.0296625
0.0280508
0.0264598
0.0249563
0.0236123
0.0224702
0.0215841
0.0351735
0.0336978
0.0322263
0.0307272
0.0292245
0.0277588
0.0263889
0.0251777
0.0241684
0.0234183
0.0361858
0.0348335
0.0334623
0.032067
0.0306681
0.0293109
0.0280566
0.0269594
0.0260641
0.025432
0.0375442
0.036281
0.0350042
0.0336953
0.0323912
0.0311218
0.0299611
0.0289653
0.0281718
0.027646
0.0392645
0.0380822
0.0368701
0.0356364
0.034394
0.0332078
0.032125
0.0312044
0.030507
0.0300531
0.0413829
0.0402592
0.039098
0.0379042
0.0367169
0.0355755
0.0345513
0.0336966
0.0330565
0.0326772
0.0439357
0.0428439
0.041706
0.040543
0.0393701
0.0382617
0.0372735
0.0364521
0.035868
0.0355335
)
;

boundaryField
{
    down
    {
        type            symmetryPlane;
    }
    right
    {
        type            calculated;
        value           uniform 0;
    }
    up
    {
        type            symmetryPlane;
    }
    left
    {
        type            calculated;
        value           nonuniform List<scalar> 
30
(
0.0175587
0.0335398
0.0478154
0.0604847
0.071648
0.0814107
0.0898796
0.0971311
0.103271
0.108354
0.112027
0.11471
0.116785
0.11826
0.119153
0.119507
0.119362
0.118744
0.117721
0.116323
0.114593
0.112587
0.110352
0.107919
0.105337
0.102658
0.0999062
0.0971434
0.0943832
0.0916887
)
;
    }
    cylinder
    {
        type            symmetry;
    }
    defaultFaces
    {
        type            empty;
    }
}


// ************************************************************************* //
