/*--------------------------------*- C++ -*----------------------------------*\
| =========                 |                                                 |
| \\      /  F ield         | OpenFOAM: The Open Source CFD Toolbox           |
|  \\    /   O peration     | Version:  2112                                  |
|   \\  /    A nd           | Website:  www.openfoam.com                      |
|    \\/     M anipulation  |                                                 |
\*---------------------------------------------------------------------------*/
FoamFile
{
    version     2.0;
    format      ascii;
    arch        "LSB;label=32;scalar=64";
    class       volScalarField;
    location    "0";
    object      Phi_nn;
}
// * * * * * * * * * * * * * * * * * * * * * * * * * * * * * * * * * * * * * //

dimensions      [0 2 -1 0 0 0 0];

internalField   nonuniform List<scalar> 
2000
(
1.6441
1.60735
1.57253
1.5389
1.5059
1.47319
1.44054
1.40783
1.37499
1.34199
1.69337
1.66016
1.62877
1.59845
1.56868
1.53912
1.50954
1.47982
1.4499
1.41975
1.7447
1.71514
1.68729
1.66044
1.63407
1.60784
1.58154
1.55505
1.52831
1.50128
1.79787
1.77205
1.74786
1.7246
1.70177
1.67905
1.65623
1.63318
1.60984
1.58618
1.85267
1.83067
1.81023
1.79067
1.77152
1.75245
1.73327
1.71383
1.69409
1.674
1.90888
1.89076
1.87414
1.85838
1.84301
1.82772
1.81231
1.79664
1.78065
1.76432
1.96626
1.95208
1.93935
1.92746
1.91596
1.90455
1.89301
1.88122
1.86912
1.85667
2.02456
2.01438
2.00559
1.99764
1.99008
1.98261
1.97504
1.96722
1.9591
1.95063
2.08355
2.0774
2.07261
2.06864
2.06508
2.06162
2.05807
2.05429
2.0502
2.04577
2.14297
2.14089
2.14013
2.14019
2.14067
2.14127
2.14178
2.14206
2.14203
2.14164
1.30788
1.24059
1.17822
1.11977
1.06451
1.01188
0.961446
0.912845
0.865799
0.820101
1.32555
1.26118
1.20129
1.1449
1.0913
1.03997
0.99049
0.942554
0.895925
0.850435
1.34743
1.28592
1.22847
1.17414
1.12224
1.07226
1.02384
0.976691
0.930621
0.885497
1.37321
1.31455
1.25957
1.20735
1.15722
1.10871
1.06148
1.01529
0.96996
0.925398
1.40264
1.34685
1.2944
1.24438
1.19615
1.14926
1.1034
1.05836
1.014
0.970227
1.43549
1.38263
1.33279
1.28509
1.23892
1.19384
1.14956
1.1059
1.06275
1.02004
1.47155
1.4217
1.37459
1.32937
1.28542
1.24236
1.1999
1.15788
1.11621
1.07483
1.51063
1.46389
1.41964
1.37705
1.33554
1.29471
1.25432
1.21422
1.17431
1.13456
1.55254
1.50902
1.46777
1.42799
1.38911
1.35076
1.31269
1.27478
1.23693
1.19912
1.59709
1.5569
1.5188
1.482
1.44596
1.41032
1.37484
1.33939
1.3039
1.26834
0.775405
0.731253
0.688219
0.646243
0.605269
0.565238
0.526091
0.487771
0.450219
0.413379
0.377199
0.341627
0.306616
0.272121
0.2381
0.204512
0.171322
0.138496
0.106004
0.0738182
0.804868
0.758884
0.714053
0.670326
0.627655
0.585991
0.54528
0.505465
0.46649
0.428299
0.390835
0.354045
0.317875
0.282273
0.247193
0.212587
0.178415
0.144638
0.111223
0.0781362
0.838977
0.790839
0.743893
0.698102
0.653428
0.609827
0.567251
0.52565
0.484968
0.445149
0.406135
0.367868
0.330289
0.293342
0.256971
0.221124
0.185753
0.150814
0.116268
0.082079
0.877869
0.827259
0.777884
0.729718
0.68273
0.636886
0.592145
0.548461
0.505783
0.464054
0.423216
0.383207
0.343965
0.305424
0.267524
0.230204
0.193409
0.157088
0.121197
0.0856949
0.921652
0.868257
0.816143
0.765291
0.715682
0.667289
0.620079
0.574013
0.529043
0.485118
0.442176
0.400155
0.358986
0.318598
0.278923
0.239892
0.201442
0.163514
0.126056
0.0890236
0.970397
0.913913
0.858752
0.804908
0.75237
0.701121
0.651137
0.602387
0.554829
0.508415
0.463086
0.418776
0.375413
0.332921
0.291221
0.250237
0.209896
0.17013
0.130881
0.0920952
1.02413
0.964257
0.905751
0.848613
0.792842
0.738432
0.68537
0.633633
0.583188
0.533992
0.485988
0.439111
0.393284
0.348426
0.30445
0.261268
0.218798
0.176962
0.135693
0.0949298
1.08281
1.01927
0.95713
0.896403
0.837103
0.779233
0.722792
0.667767
0.614137
0.561864
0.510898
0.461173
0.412612
0.365126
0.31862
0.272996
0.228159
0.184021
0.140504
0.0975376
1.14635
1.07888
1.01283
0.948231
0.885113
0.823491
0.763376
0.70477
0.647659
0.592018
0.537803
0.484952
0.433386
0.383011
0.333724
0.285414
0.237975
0.191304
0.145312
0.0999198
1.21459
1.14294
1.07273
1.004
0.936787
0.871134
0.807062
0.744585
0.683707
0.624412
0.566666
0.510412
0.455574
0.402053
0.349736
0.298502
0.248228
0.198798
0.150108
0.10207
1.25548
1.1816
1.10912
1.03808
0.96856
0.90059
0.834212
0.769451
0.706322
0.64482
0.584919
0.526571
0.4697
0.414209
0.359981
0.306891
0.254808
0.20361
0.153185
0.10344
1.26617
1.19211
1.11936
1.04799
0.978077
0.909661
0.842791
0.777499
0.713808
0.651718
0.59121
0.532239
0.474734
0.4186
0.363724
0.309982
0.257245
0.205393
0.154316
0.10392
1.27561
1.20143
1.12848
1.05685
0.986601
0.917804
0.850506
0.784748
0.720556
0.657937
0.596875
0.537331
0.479236
0.4225
0.367011
0.312648
0.259285
0.206804
0.155097
0.104073
1.28389
1.20963
1.13653
1.06468
0.994169
0.925049
0.857381
0.791213
0.726574
0.663478
0.601912
0.54184
0.483197
0.425896
0.369828
0.314874
0.260913
0.207827
0.155514
0.103884
1.29109
1.21678
1.14357
1.07156
1.00082
0.931428
0.86344
0.79691
0.731874
0.668347
0.606321
0.545762
0.486609
0.428777
0.372162
0.316647
0.262113
0.208448
0.155552
0.103339
1.29727
1.22295
1.14967
1.07752
1.0066
0.936973
0.868708
0.801859
0.736467
0.672549
0.610102
0.549093
0.489465
0.431135
0.374002
0.317953
0.262873
0.208654
0.155199
0.102425
1.30251
1.2282
1.15487
1.08262
1.01155
0.941718
0.87321
0.806079
0.740366
0.676094
0.61326
0.551834
0.491762
0.432963
0.375339
0.318782
0.263182
0.208433
0.154442
0.101131
1.30688
1.23258
1.15922
1.0869
1.01569
0.945695
0.876973
0.809589
0.743587
0.67899
0.615798
0.553985
0.493496
0.434255
0.376167
0.319128
0.26303
0.207775
0.153272
0.0994467
1.31043
1.23616
1.16279
1.0904
1.01908
0.948933
0.880021
0.812409
0.746143
0.681248
0.617725
0.555549
0.494669
0.43501
0.376482
0.318984
0.262413
0.206675
0.151683
0.0973663
1.31322
1.23899
1.1656
1.09315
1.02175
0.951463
0.882379
0.814559
0.74805
0.682878
0.619047
0.556531
0.495282
0.435229
0.376283
0.318349
0.261328
0.205129
0.149671
0.0948854
1.31529
1.24109
1.1677
1.09521
1.02371
0.95331
0.884069
0.816057
0.749323
0.683894
0.619773
0.556938
0.495341
0.434914
0.375572
0.317223
0.259773
0.203136
0.147235
0.0920028
1.31669
1.24252
1.16912
1.09659
1.02502
0.954499
0.885113
0.816923
0.749979
0.684309
0.619916
0.556779
0.494853
0.434071
0.374352
0.315609
0.257753
0.2007
0.144377
0.08872
1.31744
1.2433
1.16989
1.09732
1.02567
0.955052
0.88553
0.817173
0.750032
0.684135
0.619485
0.556063
0.493825
0.432707
0.372632
0.313515
0.255272
0.197824
0.141101
0.0850413
1.31758
1.24346
1.17004
1.09742
1.02571
0.95499
0.885339
0.816825
0.749498
0.683385
0.618493
0.554801
0.492268
0.430831
0.370418
0.310947
0.252338
0.194517
0.137415
0.0809733
1.31712
1.24301
1.16958
1.09692
1.02514
0.954328
0.884555
0.815892
0.748389
0.682075
0.616953
0.553006
0.490193
0.428455
0.367722
0.307917
0.248963
0.190788
0.133328
0.076525
1.31608
1.24198
1.16853
1.09584
1.02399
0.953083
0.883194
0.814391
0.746722
0.680216
0.614878
0.55069
0.487613
0.425591
0.364557
0.304436
0.245157
0.186649
0.128851
0.0717073
1.31446
1.24037
1.1669
1.09417
1.02226
0.951266
0.881269
0.812333
0.744508
0.677822
0.61228
0.547866
0.484541
0.422253
0.360935
0.300519
0.240934
0.182114
0.123998
0.0665328
1.31228
1.23819
1.16471
1.09193
1.01996
0.948889
0.87879
0.809731
0.74176
0.674906
0.609174
0.544548
0.480992
0.418454
0.356872
0.296179
0.236309
0.177196
0.118783
0.0610153
1.30954
1.23544
1.16194
1.08913
1.01711
0.945961
0.875768
0.806595
0.738491
0.671481
0.605573
0.540751
0.47698
0.41421
0.352383
0.291434
0.231298
0.171913
0.113221
0.0551699
1.30623
1.23213
1.15861
1.08577
1.0137
0.942487
0.872211
0.802936
0.734709
0.667559
0.60149
0.536488
0.472519
0.409537
0.347484
0.286298
0.225917
0.166279
0.107328
0.0490122
2.14221
2.04495
1.94838
1.853
1.75925
1.66759
1.57848
1.49238
1.40973
1.33094
2.14376
2.04774
1.95237
1.85811
1.76543
1.67478
1.58662
1.50138
1.4195
1.34139
2.14491
2.05008
1.95582
1.86262
1.77093
1.68121
1.59389
1.50941
1.42819
1.35062
2.1457
2.052
1.9588
1.86658
1.77581
1.68693
1.60036
1.51654
1.43587
1.35873
2.14617
2.05352
1.96132
1.87004
1.78012
1.69199
1.6061
1.52284
1.44261
1.36579
2.14633
2.05469
1.96343
1.87302
1.78389
1.69646
1.61116
1.52838
1.4485
1.37189
2.14623
2.05553
1.96516
1.87557
1.78717
1.70038
1.6156
1.53321
1.4536
1.37709
2.14589
2.05607
1.96654
1.87771
1.78999
1.70378
1.61945
1.53739
1.45795
1.38146
2.14532
2.05634
1.96759
1.87948
1.79239
1.7067
1.62277
1.54096
1.46162
1.38506
2.14456
2.05635
1.96835
1.88091
1.7944
1.70917
1.62558
1.54397
1.46465
1.38794
2.1436
2.05613
1.96882
1.882
1.79602
1.71122
1.62792
1.54644
1.46708
1.39014
2.14247
2.05568
1.96901
1.88278
1.7973
1.71287
1.62981
1.5484
1.46894
1.39171
2.14116
2.05502
1.96896
1.88327
1.79823
1.71414
1.63126
1.54988
1.47026
1.39267
2.13968
2.05414
1.96865
1.88346
1.79883
1.71503
1.6323
1.55089
1.47106
1.39304
2.13802
2.05305
1.96809
1.88337
1.79911
1.71556
1.63292
1.55145
1.47135
1.39286
2.13618
2.05174
1.96728
1.88299
1.79907
1.71572
1.63315
1.55156
1.47115
1.39213
2.13415
2.05021
1.96621
1.88232
1.7987
1.71553
1.63298
1.55123
1.47046
1.39085
2.13191
2.04846
1.96489
1.88137
1.79801
1.71498
1.63241
1.55046
1.46929
1.38904
2.12947
2.04646
1.9633
1.88011
1.79699
1.71406
1.63144
1.54925
1.46762
1.38669
2.1268
2.04422
1.96144
1.87855
1.79563
1.71277
1.63005
1.54758
1.46546
1.3838
3.01519
2.98162
2.9475
2.91276
2.87735
2.84128
2.80466
2.7677
2.73071
2.69408
2.94245
2.91157
2.88013
2.84808
2.81537
2.78203
2.74821
2.71416
2.68023
2.64681
2.86562
2.83761
2.80904
2.77985
2.75001
2.7196
2.68879
2.65787
2.62722
2.59723
2.7848
2.75983
2.73429
2.70813
2.68137
2.65409
2.62652
2.59895
2.5718
2.54545
2.70022
2.67845
2.6561
2.63316
2.60966
2.58573
2.56161
2.53763
2.51417
2.49165
2.61226
2.59382
2.57483
2.55528
2.53525
2.51489
2.49443
2.47421
2.45463
2.43609
2.52142
2.50646
2.49098
2.47501
2.45864
2.44202
2.4254
2.40911
2.39352
2.37906
2.42829
2.41695
2.40516
2.39294
2.38039
2.36767
2.35501
2.34273
2.33122
2.3209
2.3335
2.32596
2.318
2.30968
2.30107
2.29235
2.28373
2.27552
2.26811
2.26194
2.23774
2.23412
2.23012
2.22579
2.22121
2.21655
2.212
2.20787
2.20456
2.20253
3.5324
3.4815
3.42923
3.37545
3.32009
3.26321
3.20502
3.14586
3.08608
3.02592
3.49712
3.44762
3.39694
3.34493
3.29148
3.23655
3.18025
3.12285
3.06468
3.00608
3.45799
3.40978
3.36055
3.31019
3.25856
3.20558
3.15129
3.09585
3.03958
2.98281
3.4153
3.36838
3.32057
3.27178
3.2219
3.17082
3.11855
3.06518
3.01099
2.95628
3.36915
3.3236
3.27726
3.23005
3.1819
3.13271
3.08244
3.0312
2.97918
2.9267
3.31949
3.27545
3.2307
3.18517
3.1388
3.09151
3.04327
2.99417
2.94441
2.89428
3.26624
3.22389
3.18088
3.13717
3.09268
3.04737
3.00122
2.95432
2.90688
2.85918
3.20929
3.16882
3.12775
3.08601
3.04355
3.00033
2.95635
2.91173
2.8667
2.82156
3.14853
3.11016
3.07121
3.03163
2.99135
2.95035
2.90867
2.86645
2.82395
2.78147
3.08386
3.04779
3.01116
2.97391
2.93598
2.89737
2.85813
2.81845
2.77862
2.73898
4.40313
4.36353
4.32375
4.28379
4.24359
4.20314
4.16239
4.12131
4.07984
4.03795
3.99558
3.95266
3.90914
3.86496
3.82005
3.77435
3.72779
3.68031
3.63185
3.58233
4.38652
4.34604
4.30536
4.26447
4.22333
4.18191
4.14018
4.0981
4.05562
4.01271
3.96931
3.92536
3.88081
3.8356
3.78966
3.74292
3.69533
3.64683
3.59736
3.54687
4.37099
4.32945
4.28768
4.24567
4.20338
4.16079
4.11787
4.07457
4.03087
3.98671
3.94204
3.89683
3.851
3.80449
3.75725
3.7092
3.66029
3.61045
3.55964
3.5078
4.35649
4.31368
4.27063
4.2273
4.18367
4.13971
4.09539
4.05067
4.00551
3.95988
3.91373
3.86701
3.81965
3.77161
3.72281
3.67318
3.62268
3.57124
3.5188
3.46532
4.34292
4.29866
4.25413
4.20929
4.16411
4.11858
4.07265
4.02629
3.97947
3.93215
3.88428
3.83582
3.7867
3.73687
3.68627
3.63482
3.58247
3.52916
3.47484
3.41945
4.33024
4.28433
4.23812
4.19156
4.14464
4.09732
4.04957
4.00137
3.95266
3.90343
3.85362
3.80318
3.75207
3.70021
3.64755
3.59403
3.53958
3.48415
3.42768
3.37013
4.31838
4.27062
4.22252
4.17405
4.12517
4.07586
4.02609
3.97582
3.92501
3.87364
3.82165
3.76901
3.71566
3.66153
3.60658
3.55073
3.49392
3.4361
3.37723
3.31726
4.3073
4.25749
4.20731
4.15671
4.10567
4.05416
4.00214
3.94959
3.89646
3.84272
3.78833
3.73325
3.67742
3.62078
3.56327
3.50484
3.44542
3.38495
3.3234
3.26073
4.29696
4.2449
4.19243
4.1395
4.08609
4.03217
3.97769
3.92264
3.86697
3.81064
3.75362
3.69586
3.63732
3.57792
3.51761
3.45634
3.39403
3.33064
3.26613
3.20044
4.28734
4.23282
4.17786
4.1224
4.06642
4.00987
3.95273
3.89496
3.83653
3.77739
3.71751
3.65685
3.59535
3.53295
3.4696
3.40522
3.33975
3.27315
3.20536
3.13633
4.2793
4.22337
4.16697
4.11005
4.05259
3.99454
3.93587
3.87656
3.81656
3.75585
3.69439
3.63213
3.56904
3.50505
3.4401
3.37414
3.3071
3.23892
3.16955
3.09892
4.27284
4.21662
4.15993
4.10272
4.04498
3.98665
3.92771
3.86813
3.80789
3.74695
3.68528
3.62285
3.55962
3.49554
3.43057
3.36464
3.2977
3.22968
3.16052
3.09017
4.26703
4.21052
4.15355
4.09607
4.03805
3.97946
3.92027
3.86045
3.79997
3.73882
3.67695
3.61436
3.55101
3.48685
3.42184
3.35593
3.28905
3.22115
3.15217
3.08204
4.26185
4.20507
4.14783
4.09008
4.0318
3.97296
3.91352
3.85347
3.79278
3.73142
3.66938
3.60664
3.54315
3.47891
3.41385
3.34793
3.28109
3.21327
3.14441
3.07444
4.25731
4.20025
4.14274
4.08473
4.0262
3.96711
3.90744
3.84717
3.78627
3.72473
3.66252
3.59962
3.53602
3.47168
3.40656
3.34061
3.27377
3.20599
3.13721
3.06736
4.25338
4.19605
4.13827
4.08001
4.02123
3.9619
3.90201
3.84153
3.78043
3.7187
3.65633
3.59329
3.52956
3.46511
3.39991
3.33391
3.26705
3.19928
3.13053
3.06075
4.25007
4.19247
4.13442
4.0759
4.01687
3.95731
3.8972
3.83651
3.77523
3.71332
3.65079
3.5876
3.52374
3.45918
3.39388
3.3278
3.26089
3.19308
3.12434
3.05461
4.24735
4.18947
4.13116
4.07238
4.01311
3.95333
3.893
3.83211
3.77063
3.70855
3.64586
3.58252
3.51852
3.45384
3.38843
3.32225
3.25526
3.18739
3.11862
3.0489
4.2452
4.18705
4.12847
4.06944
4.00993
3.94992
3.88938
3.82828
3.76662
3.70437
3.6415
3.57801
3.51387
3.44905
3.38351
3.31722
3.25012
3.18217
3.11335
3.04362
4.24361
4.18518
4.12634
4.06706
4.00731
3.94707
3.88631
3.82501
3.76316
3.70073
3.6377
3.57405
3.50975
3.44478
3.3791
3.31266
3.24544
3.17739
3.10849
3.03874
4.24255
4.18385
4.12474
4.0652
4.00521
3.94474
3.88377
3.82227
3.76022
3.69761
3.63441
3.57059
3.50613
3.44099
3.37514
3.30856
3.24119
3.17302
3.10403
3.03423
4.24199
4.18302
4.12364
4.06385
4.00362
3.94291
3.88172
3.82002
3.75777
3.69497
3.63159
3.56759
3.50295
3.43763
3.37161
3.30485
3.23733
3.16903
3.09993
3.03007
4.24192
4.18266
4.12302
4.06297
4.00249
3.94155
3.88014
3.81822
3.75578
3.69278
3.6292
3.56501
3.50018
3.43467
3.36846
3.30151
3.23382
3.16536
3.09616
3.02622
4.24229
4.18276
4.12285
4.06254
4.00181
3.94063
3.87899
3.81685
3.7542
3.69099
3.62721
3.56281
3.49777
3.43205
3.36563
3.29849
3.23061
3.162
3.09267
3.02265
4.24308
4.18327
4.12308
4.06251
4.00153
3.94011
3.87823
3.81587
3.75299
3.68956
3.62556
3.56094
3.49568
3.42974
3.3631
3.29574
3.22766
3.15888
3.08941
3.0193
4.24426
4.18416
4.1237
4.06286
4.00162
3.93995
3.87783
3.81523
3.75211
3.68845
3.62421
3.55936
3.49386
3.42768
3.3608
3.29322
3.22494
3.15597
3.08636
3.01615
4.24579
4.18541
4.12467
4.06355
4.00205
3.94012
3.87774
3.81489
3.75153
3.68762
3.62313
3.55802
3.49226
3.42582
3.3587
3.29088
3.22238
3.15323
3.08346
3.01313
4.24765
4.18697
4.12594
4.06455
4.00277
3.94058
3.87794
3.81482
3.7512
3.68702
3.62226
3.55688
3.49084
3.42413
3.35674
3.28867
3.21994
3.15059
3.08066
3.0102
4.24979
4.18881
4.1275
4.06582
4.00376
3.94129
3.87837
3.81498
3.75107
3.68661
3.62156
3.55588
3.48955
3.42255
3.35488
3.28655
3.21759
3.14803
3.07793
3.00732
4.25218
4.19091
4.1293
4.06733
4.00498
3.94221
3.87901
3.81532
3.75111
3.68635
3.62099
3.555
3.48835
3.42105
3.35308
3.28448
3.21527
3.14549
3.0752
3.00443
3.02755
2.9537
2.87569
2.79368
2.70793
2.61884
2.52689
2.43263
2.33667
2.23965
3.01915
2.94566
2.86812
2.78674
2.70181
2.61376
2.52302
2.43009
2.33552
2.23987
3.01125
2.93802
2.86086
2.78002
2.69585
2.60874
2.51912
2.42743
2.33414
2.23978
3.00382
2.93074
2.85388
2.77353
2.69005
2.60381
2.51521
2.42465
2.33255
2.2394
2.99682
2.92381
2.8472
2.76728
2.68442
2.59897
2.51131
2.42179
2.33079
2.23876
2.99024
2.91724
2.84082
2.76128
2.67897
2.59424
2.50743
2.41886
2.32888
2.23789
2.98406
2.91102
2.83473
2.75551
2.6737
2.58962
2.50358
2.41588
2.32684
2.23681
2.97828
2.90513
2.82893
2.74998
2.6686
2.58511
2.49977
2.41287
2.32468
2.23556
2.97288
2.89957
2.8234
2.74467
2.66368
2.58071
2.496
2.40982
2.32244
2.23415
2.96784
2.89432
2.81814
2.73958
2.65891
2.5764
2.49227
2.40676
2.3201
2.23259
2.96315
2.88936
2.81311
2.73467
2.65428
2.57218
2.48857
2.40366
2.31768
2.2309
2.95877
2.88466
2.8083
2.72993
2.64977
2.56803
2.48489
2.40053
2.31518
2.22907
2.95466
2.88019
2.80368
2.72533
2.64535
2.56392
2.4812
2.39736
2.31259
2.22711
2.9508
2.87592
2.7992
2.72084
2.641
2.55984
2.4775
2.39414
2.30991
2.22502
2.94714
2.8718
2.79484
2.71642
2.63669
2.55576
2.47377
2.39084
2.30712
2.22278
2.94363
2.86781
2.79057
2.71205
2.63238
2.55166
2.46998
2.38746
2.30422
2.2204
2.94025
2.86389
2.78634
2.70769
2.62806
2.54751
2.46612
2.38397
2.30118
2.21785
2.93693
2.86001
2.78211
2.70331
2.62369
2.54328
2.46215
2.38037
2.29799
2.21514
2.93363
2.85612
2.77785
2.69888
2.61923
2.53895
2.45807
2.37661
2.29464
2.21223
2.9303
2.85219
2.77352
2.69435
2.61467
2.5345
2.45384
2.3727
2.29111
2.20913
)
;

boundaryField
{
    down
    {
        type            symmetryPlane;
    }
    right
    {
        type            fixedValue;
        value           uniform 0;
    }
    up
    {
        type            symmetryPlane;
    }
    left
    {
        type            zeroGradient;
    }
    cylinder
    {
        type            symmetry;
    }
    defaultFaces
    {
        type            empty;
    }
}


// ************************************************************************* //
