/*--------------------------------*- C++ -*----------------------------------*\
| =========                 |                                                 |
| \\      /  F ield         | OpenFOAM: The Open Source CFD Toolbox           |
|  \\    /   O peration     | Version:  2112                                  |
|   \\  /    A nd           | Website:  www.openfoam.com                      |
|    \\/     M anipulation  |                                                 |
\*---------------------------------------------------------------------------*/
FoamFile
{
    version     2.0;
    format      ascii;
    arch        "LSB;label=32;scalar=64";
    class       volVectorField;
    location    "0";
    object      U_nn;
}
// * * * * * * * * * * * * * * * * * * * * * * * * * * * * * * * * * * * * * //

dimensions      [0 1 -1 0 0 0 0];

internalField   nonuniform List<vector> 
2000
(
(0.972094 -0.826152 0.0112946)
(1.0021 -0.71962 0.00954935)
(1.02308 -0.626331 0.0070111)
(1.03836 -0.547131 0.00415024)
(1.04999 -0.48081 0.0013044)
(1.05909 -0.425252 -0.00129814)
(1.06621 -0.378218 -0.00351573)
(1.07155 -0.337755 -0.00527325)
(1.07516 -0.302346 -0.00654481)
(1.07704 -0.270896 -0.00733891)
(1.04082 -0.799305 0.0112955)
(1.07142 -0.702361 0.00966248)
(1.09151 -0.616824 0.00724531)
(1.10462 -0.543414 0.00449537)
(1.11309 -0.481109 0.00173582)
(1.11833 -0.428128 -0.000815975)
(1.1212 -0.3826 -0.00302559)
(1.12213 -0.3429 -0.00482126)
(1.1214 -0.307772 -0.00617654)
(1.11917 -0.276308 -0.00709614)
(1.10755 -0.763305 0.011548)
(1.13935 -0.675029 0.0100786)
(1.15915 -0.59661 0.00781494)
(1.17065 -0.528688 0.00519167)
(1.17647 -0.470417 0.00252059)
(1.17832 -0.420312 1.1531e-05)
(1.17731 -0.376808 -0.00220524)
(1.17415 -0.338545 -0.00405877)
(1.16931 -0.304468 -0.00552044)
(1.1631 -0.273807 -0.00659026)
(1.17123 -0.716543 0.0120604)
(1.20477 -0.635974 0.0108102)
(1.22479 -0.564046 0.00873929)
(1.23521 -0.501332 0.0062669)
(1.23886 -0.447142 0.00369601)
(1.23776 -0.400234 0.0012318)
(1.23328 -0.359287 -0.000996819)
(1.22637 -0.323144 -0.00291753)
(1.21768 -0.290894 -0.00449799)
(1.20769 -0.26186 -0.00573271)
(1.23058 -0.657788 0.0128245)
(1.26625 -0.583921 0.0118524)
(1.28691 -0.517857 0.010019)
(1.29663 -0.460094 0.00772905)
(1.29852 -0.410059 0.00527866)
(1.29484 -0.366694 0.00287083)
(1.28724 -0.328858 0.000635542)
(1.27688 -0.295534 -0.00135143)
(1.26463 -0.265901 -0.0030526)
(1.25109 -0.239332 -0.00445613)
(1.28417 -0.586319 0.0138114)
(1.32216 -0.51814 0.0131751)
(1.34368 -0.457341 0.011626)
(1.35294 -0.404323 0.00955413)
(1.3533 -0.358577 0.00724997)
(1.34729 -0.319164 0.00491656)
(1.33681 -0.285053 0.00268725)
(1.32326 -0.255301 0.000643242)
(1.30767 -0.229124 -0.00117129)
(1.29082 -0.205896 -0.00273728)
(1.3305 -0.502078 0.0149666)
(1.37077 -0.438616 0.014717)
(1.39313 -0.382575 0.0134947)
(1.40195 -0.334214 0.0116743)
(1.40083 -0.29302 0.00954181)
(1.39256 -0.258097 0.00730221)
(1.37931 -0.228447 0.00509444)
(1.36271 -0.203132 0.00300726)
(1.34397 -0.181342 0.00109312)
(1.32402 -0.162407 -0.000620548)
(1.36812 -0.405803 0.0162086)
(1.41036 -0.346221 0.0163812)
(1.43329 -0.294606 0.0155152)
(1.44147 -0.251013 0.0139694)
(1.4387 -0.214845 0.012026)
(1.42809 -0.185155 0.00989395)
(1.41206 -0.160888 0.00772022)
(1.39246 -0.141031 0.00560344)
(1.37071 -0.124684 0.00360627)
(1.34788 -0.111082 0.00176572)
(1.39571 -0.299129 0.0174307)
(1.43938 -0.242824 0.0180365)
(1.46242 -0.195569 0.0175343)
(1.46955 -0.157141 0.0162664)
(1.46483 -0.126748 0.0145129)
(1.45167 -0.103281 0.0124891)
(1.43277 -0.0855246 0.0103528)
(1.41022 -0.0722991 0.00821528)
(1.38565 -0.0625435 0.00615146)
(1.36024 -0.0553473 0.00420932)
(1.41231 -0.184618 0.018509)
(1.45669 -0.131311 0.0195263)
(1.47921 -0.088691 0.0193645)
(1.48476 -0.0561464 0.0183504)
(1.47772 -0.0325623 0.0167642)
(1.46179 -0.0165294 0.0148307)
(1.43998 -0.00654759 0.0127225)
(1.41464 -0.00117442 0.0105662)
(1.38756 0.000882215 0.00845126)
(1.36007 0.000719014 0.00643766)
(0.25679 -1.06656 0.0178577)
(0.305027 -0.817126 0.0187077)
(0.352772 -0.586317 0.0170806)
(0.402946 -0.390365 0.01383)
(0.456287 -0.23679 0.00967305)
(0.511801 -0.125801 0.00519634)
(0.567538 -0.0526362 0.000873033)
(0.621318 -0.00993572 -0.00293707)
(0.671261 0.0103342 -0.00599576)
(0.716068 0.0155709 -0.00818809)
(0.331321 -1.00867 0.0174864)
(0.376859 -0.774992 0.0175093)
(0.421927 -0.564316 0.0154052)
(0.469197 -0.389291 0.0119766)
(0.519175 -0.254413 0.00788111)
(0.570788 -0.157963 0.00364776)
(0.62215 -0.0944117 -0.000307892)
(0.67124 -0.056576 -0.0036838)
(0.716359 -0.037209 -0.00629468)
(0.756383 -0.0299732 -0.00806716)
(0.40451 -0.964878 0.0168188)
(0.447419 -0.747984 0.016228)
(0.489615 -0.556342 0.0138086)
(0.533589 -0.39953 0.0103115)
(0.579745 -0.279779 0.00634013)
(0.627049 -0.19417 0.00237115)
(0.673763 -0.136952 -0.00123245)
(0.718056 -0.101429 -0.00421903)
(0.758418 -0.0812319 -0.00644642)
(0.793871 -0.0710161 -0.0078722)
(0.476692 -0.932864 0.0159853)
(0.517041 -0.732797 0.0149466)
(0.556198 -0.558589 0.0123304)
(0.596554 -0.417321 0.00883855)
(0.638526 -0.309621 0.00502564)
(0.681213 -0.231929 0.00132031)
(0.723081 -0.178634 -0.00196137)
(0.762519 -0.143688 -0.00461059)
(0.798199 -0.121598 -0.00651933)
(0.829269 -0.107908 -0.0076673)
(0.548182 -0.910077 0.0150806)
(0.586078 -0.726273 0.0137223)
(0.62209 -0.567741 0.0109951)
(0.658601 -0.439616 0.00755591)
(0.696129 -0.341464 0.00391486)
(0.733977 -0.269482 0.000457394)
(0.770862 -0.218429 -0.00254146)
(0.805405 -0.182963 -0.00490845)
(0.836462 -0.158416 -0.00656186)
(0.863292 -0.141101 -0.00749652)
(0.619259 -0.893915 0.0141755)
(0.654871 -0.725487 0.0125969)
(0.68773 -0.580931 0.00982027)
(0.720276 -0.463921 0.00646155)
(0.753206 -0.373375 0.00299101)
(0.786078 -0.30553 -0.000244213)
(0.817888 -0.255631 -0.00300426)
(0.847506 -0.219047 -0.00514469)
(0.87397 -0.191849 -0.00660355)
(0.896649 -0.171008 -0.00738535)
(0.69014 -0.88182 0.0133251)
(0.723727 -0.727752 0.0116039)
(0.753532 -0.595647 0.00882171)
(0.782116 -0.488122 0.00555755)
(0.810405 -0.403757 0.00224638)
(0.838248 -0.339004 -0.000798005)
(0.864941 -0.28965 -0.00336517)
(0.889611 -0.251733 -0.00533356)
(0.911486 -0.221975 -0.00665555)
(0.930047 -0.197897 -0.00734126)
(0.76095 -0.871322 0.0125746)
(0.792869 -0.730581 0.0107732)
(0.819844 -0.609626 0.00801721)
(0.844598 -0.510332 0.00485284)
(0.868318 -0.431163 0.00168424)
(0.89117 -0.36889 -0.00120315)
(0.912759 -0.319848 -0.00362296)
(0.932479 -0.28068 -0.00547133)
(0.949756 -0.248671 -0.00671065)
(0.964187 -0.221801 -0.00735354)
(0.831686 -0.860047 0.0119633)
(0.862397 -0.731639 0.010134)
(0.886887 -0.620752 0.00742871)
(0.908071 -0.528762 0.00436476)
(0.927417 -0.454164 0.0013199)
(0.945414 -0.394097 -0.00144391)
(0.961983 -0.345417 -0.00375951)
(0.97679 -0.305307 -0.00553623)
(0.989464 -0.271528 -0.00674303)
(0.99973 -0.242435 -0.00739272)
(0.902187 -0.845716 0.0115261)
(0.932237 -0.728699 0.00971601)
(0.9547 -0.626988 0.00708304)
(0.972693 -0.541633 0.00411937)
(0.987974 -0.471254 0.00118069)
(1.00136 -0.413369 -0.00148998)
(1.01307 -0.365311 -0.00374022)
(1.02306 -0.324733 -0.00548878)
(1.03116 -0.289791 -0.00670834)
(1.03723 -0.259146 -0.00741021)
(0.754466 0.0124414 -0.00951238)
(0.786952 0.00515415 -0.010072)
(0.814173 -0.00389702 -0.00998606)
(0.836642 -0.012756 -0.00941138)
(0.85496 -0.0203048 -0.00850936)
(0.869716 -0.0259945 -0.00742951)
(0.881427 -0.0296293 -0.00629996)
(0.890532 -0.0312114 -0.00522339)
(0.897389 -0.0308382 -0.00427672)
(0.9023 -0.0286396 -0.00351315)
(0.905529 -0.0247416 -0.00296528)
(0.907312 -0.0192466 -0.00264872)
(0.907867 -0.0122254 -0.00256561)
(0.907391 -0.0037154 -0.00270783)
(0.906058 0.00627652 -0.00305982)
(0.904014 0.0177689 -0.0036008)
(0.901373 0.0307994 -0.00430656)
(0.898218 0.0454183 -0.00515079)
(0.894604 0.0616833 -0.00610596)
(0.890562 0.0796543 -0.00714395)
(0.789305 -0.0283135 -0.0090404)
(0.816086 -0.0293445 -0.00934315)
(0.83843 -0.0324841 -0.00907808)
(0.85678 -0.0361171 -0.00838568)
(0.871671 -0.0392663 -0.00741146)
(0.883627 -0.041395 -0.00629181)
(0.893102 -0.0422448 -0.00514515)
(0.900466 -0.0417176 -0.00406755)
(0.906006 -0.039797 -0.00313175)
(0.909951 -0.0365003 -0.00238832)
(0.912491 -0.0318505 -0.00186821)
(0.913793 -0.0258618 -0.00158579)
(0.914012 -0.0185314 -0.00154215)
(0.913294 -0.00983822 -0.00172808)
(0.91177 0.000257523 -0.00212682)
(0.909557 0.0118107 -0.00271632)
(0.906745 0.0248878 -0.00347102)
(0.903406 0.0395621 -0.00436323)
(0.899585 0.0559096 -0.00536407)
(0.895313 0.074005 -0.00644411)
(0.821723 -0.0644164 -0.00856446)
(0.843313 -0.0596237 -0.00866384)
(0.861247 -0.0574233 -0.00825535)
(0.875874 -0.056419 -0.00746522)
(0.887657 -0.0557081 -0.0064263)
(0.897059 -0.0547374 -0.00526532)
(0.90448 -0.0531807 -0.0040942)
(0.910231 -0.0508465 -0.00300514)
(0.914544 -0.0476165 -0.00206884)
(0.917584 -0.0434077 -0.00133491)
(0.919477 -0.0381508 -0.000833747)
(0.920329 -0.0317793 -0.000579234)
(0.920236 -0.0242227 -0.000571695)
(0.919295 -0.0154039 -0.000800863)
(0.917598 -0.00523843 -0.00124859)
(0.915226 0.00636477 -0.00189115)
(0.912251 0.0195013 -0.00270118)
(0.908728 0.0342685 -0.00364906)
(0.904696 0.0507621 -0.00470396)
(0.900181 0.069073 -0.00583456)
(0.852361 -0.0964769 -0.00813872)
(0.869132 -0.0863389 -0.00807619)
(0.883004 -0.0793143 -0.00755054)
(0.894211 -0.0741607 -0.00667569)
(0.903131 -0.0700178 -0.00557452)
(0.910166 -0.0663061 -0.00436691)
(0.915668 -0.0626347 -0.00316098)
(0.919904 -0.0587283 -0.00204746)
(0.923058 -0.0543775 -0.00109702)
(0.925241 -0.0494091 -0.000359878)
(0.926524 -0.0436694 0.00013295)
(0.926954 -0.037016 0.000367375)
(0.926574 -0.0293131 0.000343461)
(0.925431 -0.0204289 7.25029e-05)
(0.923575 -0.0102336 -0.000425736)
(0.921058 0.00140127 -0.00112548)
(0.917926 0.0146023 -0.00199698)
(0.91422 0.0294928 -0.00300806)
(0.909967 0.0461905 -0.00412531)
(0.905191 0.0648045 -0.00531481)
(0.881821 -0.12511 -0.0078002)
(0.894004 -0.110111 -0.00760972)
(0.904047 -0.0987131 -0.00698748)
(0.912045 -0.0898039 -0.00603684)
(0.918276 -0.0825572 -0.00487285)
(0.923077 -0.0763711 -0.0036109)
(0.926756 -0.070799 -0.00235764)
(0.929545 -0.0654931 -0.00120453)
(0.931586 -0.060164 -0.000224159)
(0.932948 -0.0545566 0.000531004)
(0.933649 -0.048438 0.00102809)
(0.933683 -0.0415928 0.00125198)
(0.93304 -0.0338205 0.00120268)
(0.931716 -0.0249331 0.000892453)
(0.929721 -0.0147532 0.000342886)
(0.927072 -0.00311215 -0.000417727)
(0.923791 0.0101507 -0.00135664)
(0.919899 0.0251881 -0.00243845)
(0.915416 0.0421427 -0.00362635)
(0.910358 0.0611447 -0.00488308)
(0.910693 -0.150856 -0.00757015)
(0.918367 -0.131487 -0.00728217)
(0.924699 -0.116117 -0.00658155)
(0.929608 -0.10377 -0.00556256)
(0.933255 -0.0936646 -0.00433413)
(0.935904 -0.0851914 -0.00300911)
(0.937818 -0.0778634 -0.00169472)
(0.939197 -0.0712742 -0.000485253)
(0.940152 -0.0650651 0.000542751)
(0.940713 -0.0589072 0.00133284)
(0.940853 -0.0524928 0.00184886)
(0.940513 -0.0455346 0.00207366)
(0.93963 -0.0377654 0.00200663)
(0.93815 -0.0289382 0.00166084)
(0.936037 -0.0188238 0.00105992)
(0.933273 -0.00720907 0.000235172)
(0.929851 0.00610547 -0.000776992)
(0.925774 0.0213063 -0.00193707)
(0.921048 0.0385657 -0.00320403)
(0.915685 0.0580388 -0.00453636)
(0.939563 -0.174103 -0.00745431)
(0.942655 -0.150902 -0.00709955)
(0.945269 -0.131946 -0.00633954)
(0.947119 -0.11643 -0.00526064)
(0.948222 -0.10365 -0.00396706)
(0.94875 -0.0930141 -0.00257068)
(0.948918 -0.0840159 -0.00118115)
(0.948895 -0.0762076 0.000102355)
(0.948767 -0.069175 0.00119726)
(0.948533 -0.0625234 0.00204115)
(0.948122 -0.0558744 0.00259292)
(0.947426 -0.0488686 0.00283211)
(0.946327 -0.0411695 0.00275677)
(0.944717 -0.032466 0.00238049)
(0.942512 -0.0224717 0.00172909)
(0.939652 -0.0109226 0.000837409)
(0.936102 0.00242585 -0.000253684)
(0.93184 0.0178 -0.00149968)
(0.92686 0.0354074 -0.00285425)
(0.921166 0.0554333 -0.00427059)
(0.969018 -0.195029 -0.00744256)
(0.967303 -0.168634 -0.0070557)
(0.966067 -0.146513 -0.00625902)
(0.964794 -0.128089 -0.00513215)
(0.963321 -0.112787 -0.00377566)
(0.961709 -0.100069 -0.00230175)
(0.960111 -0.089439 -0.000824136)
(0.958665 -0.0804314 0.000551134)
(0.957436 -0.0725923 0.00173322)
(0.956394 -0.0654721 0.00265149)
(0.955433 -0.0586264 0.00325791)
(0.954393 -0.0516239 0.00352715)
(0.953099 -0.0440548 0.00345484)
(0.951387 -0.0355378 0.00305466)
(0.949118 -0.0257217 0.00235471)
(0.946189 -0.0142838 0.00139389)
(0.942525 -0.000926727 0.000218388)
(0.938081 0.0146238 -0.00112119)
(0.932835 0.0326178 -0.00257207)
(0.926785 0.0532771 -0.00408088)
(0.999633 -0.213529 -0.00750805)
(0.992749 -0.184764 -0.00713128)
(0.987409 -0.159996 -0.00632741)
(0.982849 -0.138967 -0.00517052)
(0.978696 -0.121298 -0.00375849)
(0.974873 -0.106558 -0.00220482)
(0.971451 -0.0943051 -0.000628735)
(0.968532 -0.0840823 0.000854923)
(0.966158 -0.0754187 0.0021447)
(0.96428 -0.0678243 0.00315923)
(0.962755 -0.0607959 0.00384114)
(0.961375 -0.0538309 0.00415824)
(0.959907 -0.0464428 0.00410239)
(0.958122 -0.0381728 0.00368663)
(0.955823 -0.0285958 0.00294129)
(0.952851 -0.0173209 0.00190985)
(0.949093 -0.0039877 0.000644742)
(0.944473 0.0117353 -0.000796088)
(0.938949 0.03015 -0.00235201)
(0.932516 0.0515228 -0.00396172)
(1.03193 -0.229172 -0.00760643)
(1.01942 -0.199128 -0.00729288)
(1.00961 -0.172404 -0.00652093)
(1.0015 -0.149171 -0.00536051)
(0.994493 -0.129335 -0.00390761)
(0.988334 -0.112648 -0.00227786)
(0.982993 -0.0987686 -0.000597185)
(0.978519 -0.0872915 0.00100899)
(0.974935 -0.0777569 0.00242617)
(0.972172 -0.0696541 0.00355945)
(0.970056 -0.0624324 0.00433929)
(0.968333 -0.0555217 0.0047242)
(0.966707 -0.0483549 0.00470041)
(0.964879 -0.0403883 0.00427925)
(0.962584 -0.031113 0.0034931)
(0.959603 -0.020058 0.00239043)
(0.955774 -0.00678855 0.00103097)
(0.950984 0.0090963 -0.000518636)
(0.945173 0.0279615 -0.00218834)
(0.938326 0.0501278 -0.00390721)
(1.05932 -0.226849 -0.00766035)
(1.04257 -0.198775 -0.00724875)
(1.02907 -0.172972 -0.00638352)
(1.01787 -0.149979 -0.00513753)
(1.00832 -0.129992 -0.00360753)
(1.00012 -0.112978 -0.001909)
(0.993161 -0.0987458 -0.000168)
(0.987432 -0.086989 0.00148895)
(0.982905 -0.0773023 0.00294527)
(0.979468 -0.069196 0.00410335)
(0.976906 -0.0621141 0.00489099)
(0.974917 -0.0554611 0.00526472)
(0.973156 -0.0486313 0.00521006)
(0.971275 -0.0410344 0.00473923)
(0.968958 -0.0321114 0.00388702)
(0.965943 -0.0213413 0.00270572)
(0.962031 -0.00823981 0.00125995)
(0.957086 0.00764083 -0.000378099)
(0.951032 0.0267087 -0.00213253)
(0.943852 0.0493211 -0.00392651)
(1.07619 -0.208726 -0.00753253)
(1.05762 -0.184525 -0.00686547)
(1.0422 -0.161729 -0.00579117)
(1.0292 -0.141023 -0.00438919)
(1.01813 -0.122767 -0.00275802)
(1.00874 -0.107075 -0.00101058)
(1.0009 -0.0938796 0.000733074)
(0.994555 -0.0829659 0.00235456)
(0.989623 -0.0739916 0.0037463)
(0.985928 -0.0665081 0.00481948)
(0.983207 -0.0599847 0.00550977)
(0.981122 -0.0538399 0.00578031)
(0.979299 -0.0474737 0.0056219)
(0.977368 -0.0402948 0.00505081)
(0.974993 -0.0317377 0.00410489)
(0.971898 -0.0212703 0.00283877)
(0.967869 -0.0083946 0.00131886)
(0.962763 0.00735233 -0.00038125)
(0.956503 0.0263923 -0.00218447)
(0.949077 0.0490923 -0.004013)
(1.088 -0.189664 -0.0072418)
(1.06848 -0.169056 -0.0063648)
(1.05195 -0.14919 -0.00512375)
(1.03789 -0.13083 -0.00360261)
(1.02593 -0.114439 -0.00190063)
(1.01586 -0.100239 -0.000128034)
(1.00756 -0.088254 0.00160055)
(1.00094 -0.0783414 0.00317397)
(0.995851 -0.0702134 0.0044926)
(0.992088 -0.0634592 0.00547548)
(0.989345 -0.0575744 0.00606541)
(0.987257 -0.0519941 0.00623152)
(0.985431 -0.0461278 0.00596948)
(0.98348 -0.0393866 0.00529931)
(0.981059 -0.0312019 0.00426173)
(0.977878 -0.0210327 0.00291352)
(0.973719 -0.00836888 0.0013227)
(0.968434 0.00726595 -0.00043584)
(0.961951 0.0263059 -0.002284)
(0.954263 0.049126 -0.00414313)
(1.09553 -0.17042 -0.0068282)
(1.07579 -0.15308 -0.00577892)
(1.05885 -0.13599 -0.00440614)
(1.04436 -0.119943 -0.00279643)
(1.03205 -0.105461 -0.00104894)
(1.02175 -0.0928364 0.00072897)
(1.01335 -0.0821597 0.0024277)
(1.00672 -0.0733446 0.00394261)
(1.00169 -0.0661471 0.00518126)
(0.998017 -0.0601901 0.00606978)
(0.995361 -0.054994 0.00655738)
(0.993343 -0.0500122 0.00661875)
(0.991555 -0.0446651 0.006254)
(0.989604 -0.0383686 0.00548667)
(0.987137 -0.0305523 0.00436012)
(0.98386 -0.0206682 0.00293309)
(0.979553 -0.00819522 0.0012751)
(0.974071 0.00735557 -0.00053785)
(0.967344 0.026429 -0.00242676)
(0.959379 0.0494061 -0.00431228)
(1.0996 -0.151575 -0.00632636)
(1.08024 -0.137151 -0.00513569)
(1.06347 -0.122631 -0.0036599)
(1.04905 -0.108796 -0.00198681)
(1.03683 -0.0961969 -0.000214659)
(1.02667 -0.0851655 0.00155218)
(1.01846 -0.0758376 0.00320892)
(1.01205 -0.0681669 0.0046569)
(1.00725 -0.0619441 0.00581024)
(1.00378 -0.0568204 0.0066015)
(1.00129 -0.0523391 0.00698581)
(0.999395 -0.0479709 0.00694293)
(0.997673 -0.043148 0.00647713)
(0.995729 -0.0372918 0.00561518)
(0.993209 -0.029831 0.00440289)
(0.98982 -0.0202112 0.00290081)
(0.985345 -0.00790099 0.00117976)
(0.979642 0.00759986 -0.000683263)
(0.972654 0.0267456 -0.0026085)
(0.964396 0.0499211 -0.00451598)
(1.10098 -0.133537 -0.00576509)
(1.08247 -0.121673 -0.00445841)
(1.0663 -0.109485 -0.00290317)
(1.05238 -0.0977211 -0.00118733)
(1.0406 -0.0869301 0.000592382)
(1.03087 -0.0774629 0.00233479)
(1.02307 -0.0694806 0.00393974)
(1.01706 -0.0629641 0.00531417)
(1.01261 -0.0577291 0.00637824)
(1.00943 -0.05345 0.00707044)
(1.00717 -0.0496897 0.00735137)
(1.00543 -0.045935 0.00720549)
(1.00378 -0.0416293 0.00664091)
(1.00184 -0.0361995 0.00568742)
(0.999254 -0.0290732 0.00439308)
(0.995733 -0.0196899 0.00282007)
(0.991065 -0.00750837 0.00104039)
(0.98512 0.00798222 -0.000868126)
(0.97785 0.0272437 -0.00282506)
(0.969286 0.0506628 -0.00474996)
(1.1004 -0.116565 -0.00516771)
(1.08306 -0.106918 -0.00376608)
(1.06784 -0.0968173 -0.0021508)
(1.05472 -0.0869598 -0.000409132)
(1.04365 -0.0778735 0.0013642)
(1.03456 -0.0699095 0.00307138)
(1.02735 -0.0632394 0.00461675)
(1.02185 -0.0578593 0.00591259)
(1.01785 -0.0536021 0.00688465)
(1.01503 -0.0501596 0.00747698)
(1.01303 -0.0471114 0.00765522)
(1.01145 -0.043958 0.00740823)
(1.00988 -0.040153 0.0067477)
(1.00793 -0.0351275 0.0057062)
(1.00525 -0.028308 0.00433385)
(1.00157 -0.0191273 0.00269434)
(0.996688 -0.00703456 0.000860666)
(0.990478 0.00849052 -0.00108859)
(0.982909 0.0279158 -0.00307248)
(0.974027 0.0516271 -0.00501015)
(1.0985 -0.100794 -0.00455281)
(1.08256 -0.0930522 -0.00307395)
(1.06852 -0.0848028 -0.00141474)
(1.05642 -0.0766803 0.000338842)
(1.04624 -0.06918 0.00209445)
(1.03795 -0.0626392 0.00375775)
(1.03144 -0.0572278 0.00523751)
(1.02655 -0.0529474 0.00645106)
(1.02304 -0.0496414 0.00732947)
(1.0206 -0.0470137 0.00782196)
(1.01887 -0.0446569 0.00789891)
(1.01746 -0.0420834 0.00755326)
(1.01595 -0.0387546 0.00680005)
(1.01397 -0.034105 0.00567444)
(1.01118 -0.0275584 0.00422844)
(1.00732 -0.0185409 0.00252706)
(1.00219 -0.00649204 0.000644203)
(0.995691 0.00911683 -0.00134093)
(0.987806 0.0287575 -0.00334696)
(0.978595 0.0528124 -0.00529272)
(1.09584 -0.0862744 -0.00393511)
(1.08144 -0.0801628 -0.00239414)
(1.06872 -0.0735461 -0.000704508)
(1.05776 -0.0669923 0.00104951)
(1.0486 -0.0609547 0.0027782)
(1.0412 -0.0557473 0.00439078)
(1.03546 -0.0515291 0.00580038)
(1.03122 -0.0482998 0.00692915)
(1.02823 -0.0459067 0.00771321)
(1.02618 -0.044062 0.00810665)
(1.02472 -0.0423679 0.0080843)
(1.02346 -0.0403455 0.00764293)
(1.02199 -0.0374625 0.00680071)
(1.01995 -0.0331545 0.00559519)
(1.01702 -0.0268421 0.0040801)
(1.01294 -0.0179433 0.00232164)
(1.00754 -0.00588892 0.0003945)
(1.00074 0.00985705 -0.0016216)
(0.992522 0.0297682 -0.00364492)
(0.982975 0.0542202 -0.00559406)
(1.09288 -0.0729934 -0.00332629)
(1.08006 -0.0682788 -0.00173627)
(1.06873 -0.0631011 -2.76028e-05)
(1.059 -0.057961 0.00171737)
(1.05092 -0.0532656 0.00341173)
(1.04445 -0.0492988 0.00496829)
(1.03951 -0.0462024 0.00630443)
(1.03593 -0.0439682 0.00734697)
(1.03346 -0.0424429 0.00803681)
(1.0318 -0.0413426 0.00833264)
(1.03059 -0.0402762 0.00821351)
(1.02944 -0.038771 0.00767978)
(1.02798 -0.0362983 0.00675253)
(1.02585 -0.0322933 0.00547151)
(1.02274 -0.0261714 0.00389206)
(1.01842 -0.0173428 0.0020814)
(1.01273 -0.00522937 0.000114933)
(1.0056 0.0107105 -0.0019272)
(0.99704 0.0309496 -0.00396297)
(0.987152 0.0558541 -0.00591079)
(1.09002 -0.0609036 -0.00273568)
(1.07876 -0.0573924 -0.00110796)
(1.06882 -0.053486 0.000610089)
(1.06033 -0.0496199 0.00233821)
(1.05334 -0.046153 0.00399233)
(1.04781 -0.0433356 0.00548887)
(1.04367 -0.0412877 0.00674935)
(1.04074 -0.0399892 0.00770509)
(1.03877 -0.0392822 0.00830155)
(1.03746 -0.0388837 0.00850181)
(1.03646 -0.0384059 0.00828887)
(1.0354 -0.0373799 0.00766647)
(1.03391 -0.0352782 0.00665842)
(1.03165 -0.0315334 0.00530651)
(1.02834 -0.0255547 0.0036675)
(1.02374 -0.0167436 0.00180958)
(1.01773 -0.00451395 -0.000191266)
(1.01026 0.0116796 -0.00225452)
(1.00135 0.0323061 -0.00429792)
(0.991116 0.0577191 -0.00623979)
(1.08753 -0.0499387 -0.00217082)
(1.07777 -0.0474737 -0.000515275)
(1.06919 -0.0446961 0.001204)
(1.0619 -0.0419804 0.00290886)
(1.05597 -0.0396376 0.00451813)
(1.05137 -0.0378827 0.00595178)
(1.04799 -0.036811 0.00713535)
(1.04566 -0.0363878 0.00800451)
(1.04415 -0.0364478 0.00850907)
(1.04316 -0.0367057 0.00861627)
(1.04233 -0.0367748 0.00831286)
(1.04132 -0.036187 0.00760577)
(1.03976 -0.0344136 0.00652134)
(1.03734 -0.0308828 0.00510323)
(1.03378 -0.0249961 0.00340955)
(1.02888 -0.0161462 0.00150929)
(1.02254 -0.0037401 -0.000521012)
(1.0147 0.0127692 -0.00260053)
(1.00544 0.0338441 -0.00464681)
(0.994859 0.0598219 -0.00657811)
(1.08563 -0.0400265 -0.00163783)
(1.07727 -0.0384813 3.7008e-05)
(1.06996 -0.0367131 0.00175066)
(1.06383 -0.03504 0.0034271)
(1.0589 -0.0337268 0.00498803)
(1.05516 -0.0329528 0.00635688)
(1.0525 -0.0327879 0.00746312)
(1.05073 -0.0331804 0.00824658)
(1.04963 -0.0339553 0.00866125)
(1.0489 -0.0348233 0.00867833)
(1.0482 -0.0353955 0.00828811)
(1.04718 -0.0352025 0.00750051)
(1.04551 -0.0337118 0.00634424)
(1.04288 -0.0303454 0.00486471)
(1.03905 -0.0244961 0.00312121)
(1.03383 -0.015548 0.00118352)
(1.02713 -0.00290254 -0.000871378)
(1.01892 0.0139864 -0.00296237)
(1.00929 0.0355712 -0.00500685)
(0.998377 0.0621697 -0.00692306)
(1.08445 -0.0310967 -0.00114161)
(1.07738 -0.0303705 0.000545202)
(1.07125 -0.029512 0.00224755)
(1.06618 -0.0287877 0.00389151)
(1.06218 -0.0284192 0.00540157)
(1.05923 -0.028551 0.00670456)
(1.05721 -0.0292269 0.00773376)
(1.05595 -0.0303771 0.00843299)
(1.0552 -0.0318156 0.00876024)
(1.05467 -0.0332465 0.00869047)
(1.05403 -0.0342768 0.00821733)
(1.05297 -0.0344329 0.00735356)
(1.05114 -0.0331767 0.00613006)
(1.04827 -0.0299219 0.00459389)
(1.04413 -0.0240523 0.00280541)
(1.03856 -0.0149436 0.000835116)
(1.03149 -0.00199361 -0.00123959)
(1.02291 0.01534 -0.00333735)
(1.01292 0.0374963 -0.00537544)
(1.00167 0.06477 -0.00727212)
(1.0841 -0.0230857 -0.000685971)
(1.07817 -0.0230979 0.00100662)
(1.0731 -0.0230654 0.00269304)
(1.06899 -0.0232088 0.0043014)
(1.06583 -0.0237091 0.00575892)
(1.06359 -0.0246775 0.00699572)
(1.06214 -0.026132 0.00794876)
(1.0613 -0.0279843 0.00856571)
(1.06083 -0.0300358 0.00880838)
(1.06044 -0.0319821 0.00865531)
(1.05982 -0.0334242 0.00810332)
(1.05865 -0.0338818 0.00716781)
(1.05663 -0.032809 0.00588174)
(1.05349 -0.0296102 0.00429366)
(1.04901 -0.0236594 0.00246497)
(1.04308 -0.0143252 0.000466805)
(1.03562 -0.00100373 -0.00162304)
(1.02667 0.0168401 -0.00372297)
(1.01631 0.0396288 -0.00575017)
(1.00473 0.0676306 -0.00762296)
(1.08459 -0.0159394 -0.000273635)
(1.07967 -0.0166244 0.00141955)
(1.07554 -0.0173474 0.00308634)
(1.07228 -0.0182876 0.00465681)
(1.06986 -0.0195886 0.00606084)
(1.06823 -0.02133 0.00723175)
(1.06727 -0.0235048 0.00811002)
(1.06677 -0.0260057 0.00864704)
(1.06651 -0.0286205 0.00880825)
(1.0662 -0.0310347 0.00857561)
(1.06554 -0.0328408 0.00794895)
(1.06422 -0.0335502 0.00694615)
(1.06196 -0.032607 0.00560212)
(1.0585 -0.0294053 0.00396682)
(1.05368 -0.0233096 0.00210258)
(1.04736 -0.0136826 8.11677e-05)
(1.03951 7.82868e-05 -0.00201925)
(1.03018 0.018498 -0.00411686)
(1.01947 0.0419784 -0.00612878)
(1.00757 0.0707587 -0.00797343)
(1.08591 -0.00961326 9.37883e-05)
(1.08187 -0.0109169 0.00178327)
(1.07856 -0.012335 0.00342752)
(1.07603 -0.0140095 0.00495852)
(1.07425 -0.0160499 0.00630872)
(1.07314 -0.0185058 0.00741451)
(1.07257 -0.0213459 0.00821981)
(1.07234 -0.024444 0.00867953)
(1.07221 -0.027573 0.00876261)
(1.07192 -0.030407 0.00845426)
(1.07116 -0.032528 0.00775714)
(1.06964 -0.0334367 0.00669149)
(1.0671 -0.0325664 0.00529404)
(1.06331 -0.0293 0.00361607)
(1.05811 -0.0229929 0.00172083)
(1.05139 -0.0130042 -0.000319344)
(1.04315 0.00126489 -0.0024259)
(1.03345 0.0203252 -0.00451683)
(1.0224 0.0445548 -0.0065092)
(1.0102 0.074161 -0.00832155)
(1.08804 -0.0040733 0.000415867)
(1.08474 -0.00594944 0.00209807)
(1.08213 -0.00800985 0.00371753)
(1.08021 -0.010363 0.00520803)
(1.07896 -0.0130867 0.00650453)
(1.07828 -0.0162027 0.00754638)
(1.07801 -0.019656 0.00828077)
(1.07797 -0.0233012 0.00866603)
(1.07791 -0.0268957 0.00867442)
(1.07756 -0.0301003 0.00829424)
(1.07665 -0.032485 0.00753085)
(1.07489 -0.0335382 0.0064067)
(1.07204 -0.0326809 0.00496026)
(1.06789 -0.0292847 0.00324404)
(1.0623 -0.0226974 0.00132218)
(1.05518 -0.0122765 -0.000732408)
(1.04655 0.00256946 -0.00284081)
(1.03647 0.0223338 -0.00492082)
(1.02509 0.0473674 -0.00688947)
(1.0126 0.0778431 -0.00866551)
(1.09089 0.000704715 0.000693416)
(1.08821 -0.00170337 0.00236533)
(1.08618 -0.00435886 0.00395821)
(1.08478 -0.00733993 0.00540761)
(1.08396 -0.0106953 0.00665087)
(1.0836 -0.0144202 0.00763019)
(1.08355 -0.0184366 0.00829593)
(1.08362 -0.0225797 0.00860965)
(1.08356 -0.0265905 0.00854682)
(1.08311 -0.0301151 0.00809865)
(1.08199 -0.0327097 0.00727307)
(1.07996 -0.0338492 0.00609465)
(1.07676 -0.0329416 0.00460346)
(1.07223 -0.0293478 0.00285326)
(1.06623 -0.0224093 0.000909001)
(1.05872 -0.0114849 -0.00115582)
(1.0497 0.00400601 -0.00326193)
(1.03926 0.0245357 -0.00532691)
(1.02756 0.0504249 -0.0072678)
(1.0148 0.0818101 -0.00900361)
(1.09438 0.00473544 0.00092856)
(1.09222 0.0018325 0.00258751)
(1.09066 -0.00137472 0.00415236)
(1.08967 -0.00493671 0.0055603)
(1.08918 -0.00887502 0.00675096)
(1.08906 -0.0131597 0.00766929)
(1.08915 -0.0176902 0.00826866)
(1.08925 -0.0222821 0.00851377)
(1.08913 -0.0266587 0.0083831)
(1.08851 -0.0304506 0.00787066)
(1.08715 -0.0331984 0.00698683)
(1.0848 -0.0343626 0.00575815)
(1.08124 -0.033338 0.0042263)
(1.07632 -0.0294757 0.00244616)
(1.06991 -0.0221134 0.000483544)
(1.06199 -0.0106138 -0.00158749)
(1.05259 0.00558896 -0.0036873)
(1.04181 0.0269428 -0.00573328)
(1.02981 0.0537355 -0.00764251)
(1.01679 0.0860653 -0.00933431)
(1.33314 -0.000138979 0.00459575)
(1.33516 -0.0479947 0.00251468)
(1.32592 -0.096425 0.000262671)
(1.30609 -0.141833 -0.00191606)
(1.27749 -0.181021 -0.00382888)
(1.24264 -0.211779 -0.00535821)
(1.20415 -0.233123 -0.00646403)
(1.16436 -0.245183 -0.00717054)
(1.12503 -0.248891 -0.0075449)
(1.08727 -0.245601 -0.00767554)
(1.30714 -0.00133705 0.00292457)
(1.31056 -0.0407485 0.00104133)
(1.30452 -0.0814154 -0.000960328)
(1.2893 -0.120472 -0.00288075)
(1.26622 -0.155179 -0.00455843)
(1.23726 -0.183468 -0.0058907)
(1.20463 -0.20423 -0.00683897)
(1.17036 -0.217312 -0.00742061)
(1.13608 -0.223307 -0.00769283)
(1.10288 -0.223255 -0.00773462)
(1.28282 -0.00303374 0.00141588)
(1.28692 -0.0353247 -0.000295838)
(1.28315 -0.0692311 -0.00206994)
(1.27154 -0.102508 -0.00374551)
(1.25299 -0.132852 -0.00519038)
(1.22902 -0.158392 -0.0063181)
(1.20145 -0.177984 -0.00709445)
(1.17205 -0.191281 -0.00753305)
(1.14227 -0.198612 -0.00768348)
(1.11316 -0.200755 -0.00761659)
(1.26047 -0.00477883 7.1072e-05)
(1.26468 -0.0311203 -0.00149409)
(1.26242 -0.0592214 -0.00306493)
(1.25354 -0.0873458 -0.00451349)
(1.2386 -0.11359 -0.00573426)
(1.21876 -0.136298 -0.00665729)
(1.1955 -0.154353 -0.00725468)
(1.17031 -0.16729 -0.00753875)
(1.14449 -0.175237 -0.00755359)
(1.119 -0.178753 -0.00736331)
(1.24026 -0.00626908 -0.00111494)
(1.24415 -0.0276718 -0.00255579)
(1.24277 -0.0508428 -0.00394712)
(1.23585 -0.0744527 -0.00518848)
(1.22373 -0.096946 -0.00619799)
(1.20726 -0.116884 -0.00692161)
(1.1876 -0.133215 -0.00733893)
(1.166 -0.145411 -0.00746285)
(1.1436 -0.153454 -0.0073338)
(1.12128 -0.157728 -0.00701049)
(1.22222 -0.0073196 -0.00215169)
(1.22551 -0.0246381 -0.00348719)
(1.22452 -0.0436562 -0.00472092)
(1.21894 -0.063363 -0.00577516)
(1.20896 -0.0824965 -0.00658849)
(1.19516 -0.0998226 -0.0071217)
(1.17846 -0.114377 -0.00736234)
(1.15989 -0.125609 -0.00732528)
(1.14041 -0.133398 -0.0070488)
(1.12083 -0.137989 -0.00658752)
(1.20635 -0.00783676 -0.00305148)
(1.20883 -0.0217817 -0.00429732)
(1.20787 -0.03732 -0.00539294)
(1.20315 -0.0536859 -0.00627925)
(1.19472 -0.0698593 -0.00691232)
(1.18301 -0.0847905 -0.00726637)
(1.16871 -0.0976111 -0.00733693)
(1.15265 -0.107773 -0.00714173)
(1.13565 -0.115091 -0.00671817)
(1.11843 -0.119701 -0.00611793)
(1.19255 -0.0077943 -0.00382813)
(1.19414 -0.0189489 -0.00499704)
(1.19295 -0.0315789 -0.00597144)
(1.18869 -0.0451049 -0.00670749)
(1.18137 -0.0587024 -0.00717608)
(1.17125 -0.0714824 -0.00736335)
(1.15886 -0.0826719 -0.0072725)
(1.14487 -0.0917441 -0.00692468)
(1.12997 -0.0984737 -0.00635738)
(1.11475 -0.102917 -0.00562036)
(1.1807 -0.00721327 -0.00449588)
(1.18138 -0.0160518 -0.00559821)
(1.1798 -0.0262514 -0.00646584)
(1.17574 -0.0373728 -0.00706751)
(1.16915 -0.0487483 -0.00738663)
(1.16022 -0.0596258 -0.0074198)
(1.14934 -0.0693221 -0.00717741)
(1.13704 -0.0773422 -0.00668429)
(1.12389 -0.0834395 -0.00597875)
(1.11039 -0.087612 -0.00510953)
(1.17066 -0.00614589 -0.00506866)
(1.17046 -0.0130515 -0.00611293)
(1.16841 -0.0212154 -0.00688614)
(1.16435 -0.030304 -0.00736754)
(1.15822 -0.0397737 -0.00755115)
(1.15017 -0.0489877 -0.00744266)
(1.14047 -0.0573443 -0.0070591)
(1.12955 -0.0643852 -0.00642909)
(1.11786 -0.0698562 -0.0055923)
(1.10584 -0.073715 -0.0045972)
(1.16225 -0.00466331 -0.00555943)
(1.16126 -0.00994452 -0.00655298)
(1.15872 -0.0163965 -0.00724245)