/*--------------------------------*- C++ -*----------------------------------*\
| =========                 |                                                 |
| \\      /  F ield         | OpenFOAM: The Open Source CFD Toolbox           |
|  \\    /   O peration     | Version:  2112                                  |
|   \\  /    A nd           | Website:  www.openfoam.com                      |
|    \\/     M anipulation  |                                                 |
\*---------------------------------------------------------------------------*/
FoamFile
{
    version     2.0;
    format      ascii;
    arch        "LSB;label=32;scalar=64";
    class       volScalarField;
    location    "0";
    object      error_U;
}
// * * * * * * * * * * * * * * * * * * * * * * * * * * * * * * * * * * * * * //

dimensions      [0 1 -1 0 0 0 0];

internalField   nonuniform List<scalar> 
2000
(
0.0461825
0.0514771
0.0560857
0.0514679
0.0426789
0.0337158
0.0264779
0.0213389
0.0178963
0.0156109
0.0561305
0.0333045
0.0434997
0.0455126
0.0407625
0.0340248
0.0280316
0.0236322
0.020618
0.0183766
0.0720378
0.0100445
0.0297009
0.0392306
0.0379788
0.0329687
0.027954
0.0242348
0.0218558
0.0204575
0.0915586
0.0204974
0.0288133
0.0388318
0.037491
0.0320906
0.0267736
0.0229499
0.0206872
0.0196068
0.109609
0.0432414
0.0407577
0.0440045
0.0390996
0.0313326
0.0244621
0.0197018
0.0169617
0.015703
0.122032
0.0592002
0.0519965
0.0493018
0.040355
0.0298134
0.021072
0.0150793
0.011585
0.00999882
0.127214
0.066165
0.0570217
0.0510057
0.039426
0.0270776
0.0172763
0.0106772
0.00659259
0.00429273
0.126687
0.0644764
0.0548021
0.048134
0.0359823
0.0235862
0.0146299
0.00976096
0.00735054
0.00557501
0.125188
0.057131
0.046304
0.0412517
0.0307287
0.020386
0.0146089
0.0130222
0.0123231
0.0109479
0.129585
0.051026
0.0340842
0.0318147
0.0248778
0.0184149
0.0164605
0.0168875
0.016691
0.0151977
0.243491
0.108402
0.0452091
0.0319549
0.0322052
0.0389127
0.0504873
0.0607805
0.0672513
0.0699479
0.19794
0.0753278
0.0117595
0.0130518
0.0133552
0.012072
0.0231297
0.0344855
0.042255
0.046363
0.165859
0.060514
0.0174798
0.0258036
0.0238755
0.0124785
0.00440853
0.014602
0.0229508
0.0280931
0.13967
0.0523114
0.0236041
0.0316907
0.0310709
0.0220415
0.0104087
0.00289246
0.00963216
0.0152231
0.113882
0.0425187
0.0181098
0.0272111
0.0293824
0.0239205
0.0151962
0.00655253
0.00305358
0.00785987
0.0867947
0.0326833
0.00622318
0.0154901
0.0205536
0.018892
0.0136249
0.00733088
0.00240205
0.00520703
0.0606107
0.0331977
0.0193425
0.0125723
0.0117641
0.0110685
0.00845686
0.00480421
0.00273153
0.00581654
0.0412542
0.0450626
0.0392109
0.0286072
0.0191832
0.0127438
0.00871849
0.00654579
0.00656409
0.00882235
0.0355152
0.0563857
0.0542664
0.0434712
0.0317646
0.0223575
0.0158999
0.0120248
0.0101904
0.0103172
0.0396448
0.0594726
0.0603637
0.0515126
0.0401682
0.0300377
0.0223824
0.017094
0.0134188
0.0104116
0.069487
0.0675176
0.063455
0.0577192
0.0507579
0.0430857
0.0352687
0.0278731
0.0213927
0.0161839
0.0124339
0.010177
0.00934373
0.00977674
0.0112068
0.0132972
0.0157232
0.0182244
0.0206347
0.0229125
0.0475131
0.0480097
0.0462468
0.0425849
0.0374788
0.0314664
0.0251515
0.0191559
0.0140502
0.0102772
0.00804037
0.00720458
0.00746601
0.0086668
0.0107056
0.0133601
0.0163285
0.0193267
0.0221552
0.0247358
0.0300358
0.0325198
0.0327771
0.0309724
0.0275513
0.023077
0.0182305
0.0137803
0.0104983
0.00884318
0.00846794
0.00860685
0.00897398
0.00985468
0.0115976
0.0141798
0.0172626
0.0204569
0.023474
0.0261706
0.0167306
0.0206367
0.0226816
0.0225977
0.0207966
0.0178645
0.0146018
0.0119667
0.0107236
0.0107526
0.0111939
0.011421
0.0114207
0.0116854
0.0128411
0.0150863
0.0180842
0.0213278
0.0244107
0.027112
0.00739703
0.0119795
0.0155221
0.0169621
0.0166353
0.0151083
0.0132529
0.0120637
0.0120642
0.0128274
0.0135423
0.0137325
0.0134502
0.0132328
0.0138513
0.0157253
0.0185815
0.0218154
0.024903
0.0275407
0.00178533
0.0061922
0.0106991
0.0131283
0.0137611
0.013122
0.0121072
0.0117234
0.0124153
0.0136853
0.0147306
0.0150764
0.0147431
0.0142514
0.0144629
0.016001
0.0187054
0.0219047
0.0249628
0.0274906
0.00228332
0.00361267
0.00755274
0.0098744
0.0106569
0.0103155
0.0096794
0.00980859
0.0111596
0.0131008
0.0147293
0.0155011
0.0153675
0.014805
0.014727
0.015956
0.0184926
0.0216341
0.0246327
0.0270122
0.00603824
0.0057124
0.00693722
0.008256
0.00866887
0.00804298
0.00703242
0.00704505
0.00887976
0.0115657
0.0139251
0.0152969
0.0155382
0.0150474
0.0147489
0.015656
0.0179881
0.0210459
0.0239619
0.0261587
0.00920299
0.0108656
0.0134624
0.0144072
0.0133829
0.0111062
0.00840776
0.00661369
0.00741277
0.0101115
0.0128982
0.0147792
0.0154129
0.0150471
0.0145552
0.0151146
0.0172085
0.0201731
0.0230017
0.0249905
0.00772519
0.00594824
0.00958868
0.0108496
0.0112576
0.0110041
0.0102125
0.0093581
0.00930038
0.0105775
0.0126073
0.0143419
0.0150777
0.0147472
0.0140515
0.0142617
0.0161381
0.0190541
0.0218234
0.023591
0.0109384
0.00787376
0.00772152
0.0094703
0.0115818
0.0133306
0.0143712
0.0147046
0.0146772
0.0148033
0.0153128
0.0158574
0.0158403
0.0150096
0.013868
0.0136528
0.0152517
0.0180175
0.0206114
0.0220673
0.00875646
0.00897589
0.00928462
0.0103572
0.0117636
0.0129937
0.0137393
0.0139668
0.0139495
0.0141056
0.0146028
0.0150865
0.0149892
0.0140805
0.0128845
0.0126824
0.0143338
0.0170679
0.01948
0.020607
0.00984003
0.010506
0.0108838
0.0115346
0.0123543
0.0130415
0.0133732
0.0133384
0.013174
0.0132505
0.0136791
0.0140956
0.0139314
0.0129655
0.0117545
0.0116343
0.0134068
0.0161349
0.018365
0.0191498
0.0123691
0.0123418
0.0124173
0.0126915
0.0130422
0.0132483
0.0131585
0.0127902
0.0123933
0.0123157
0.0126445
0.0129851
0.012758
0.0117508
0.0105604
0.0106038
0.0125529
0.0152882
0.0173238
0.0177516
0.0143286
0.0138622
0.0136705
0.0136613
0.0136533
0.0134659
0.0129953
0.0122918
0.0116302
0.0113684
0.0115885
0.0118421
0.0115541
0.0105148
0.00939753
0.00967146
0.011848
0.0145776
0.0164033
0.0164569
0.0153844
0.0148346
0.0145403
0.01435
0.0140901
0.0135988
0.0128062
0.0118124
0.0109127
0.0104738
0.010568
0.0107388
0.0103667
0.00931807
0.00832613
0.00892777
0.0113405
0.0140448
0.0156306
0.0152925
0.0157342
0.0153132
0.0150235
0.0147451
0.0143094
0.0135889
0.0125581
0.0113302
0.0102225
0.0096378
0.0096226
0.00969693
0.00926741
0.00821656
0.00741652
0.00842128
0.0110522
0.0136922
0.0150152
0.0142841
0.0156093
0.015389
0.0151835
0.014867
0.0143116
0.0134284
0.012214
0.0108207
0.00957764
0.00889089
0.0087835
0.00877622
0.00827476
0.00726347
0.00675437
0.00819757
0.0109965
0.0135196
0.0145551
0.0134354
0.0151782
0.0151746
0.0150698
0.0147494
0.0141213
0.0131167
0.0117793
0.0102784
0.00896886
0.00822693
0.00807139
0.00797972
0.00742829
0.0065005
0.00638915
0.00824722
0.0111312
0.0135012
0.014239
0.012757
0.0145445
0.0147551
0.0147459
0.0144396
0.0137564
0.0126735
0.0112541
0.00970399
0.00839112
0.00765965
0.00747616
0.00731924
0.0067432
0.00598423
0.00632817
0.00853786
0.0114342
0.0136171
0.0140579
0.0122535
0.0137896
0.0141837
0.0142672
0.0139696
0.01325
0.0121089
0.0106549
0.00911477
0.00784967
0.00718273
0.00700501
0.00680633
0.0062474
0.00573847
0.00656486
0.00901643
0.0118759
0.0138455
0.0140019
0.0119422
0.0129811
0.0135232
0.0136807
0.0133869
0.0126335
0.0114611
0.0100013
0.0085052
0.00734901
0.00678805
0.00664419
0.00644395
0.00596132
0.00578002
0.00704428
0.0096575
0.0124244
0.0141865
0.0140855
0.0118578
0.0121834
0.0128307
0.0130236
0.0127221
0.0119387
0.0107465
0.00930754
0.00790943
0.00690804
0.0064836
0.00640732
0.0062269
0.00589301
0.00610168
0.00772821
0.0104265
0.0130784
0.0146356
0.0143232
0.0120433
0.0114577
0.0121561
0.0123503
0.012018
0.0112002
0.00999601
0.00860669
0.00733535
0.00652358
0.00626434
0.00626064
0.00616999
0.00606233
0.00667033
0.0085835
0.0113126
0.0138463
0.015217
0.0147489
0.0125417
0.0108892
0.011569
0.011713
0.0113235
0.0104589
0.00924714
0.00792743
0.00680709
0.00620363
0.00612197
0.00623743
0.00626979
0.00645002
0.00744273
0.00957979
0.0123187
0.0147371
0.0159561
0.0153998
0.0134086
0.0105615
0.0111392
0.0111744
0.0106882
0.00975521
0.00853495
0.00728151
0.00633507
0.00595829
0.00606449
0.00631644
0.00654155
0.0070493
0.00840262
0.010723
0.0134572
0.0157725
0.0168845
0.0163303
0.0146611
0.0105484
0.0109373
0.0108052
0.0101757
0.00914394
0.00789373
0.0067079
0.00594576
0.00579179
0.00609017
0.00651694
0.00699928
0.00786064
0.0095438
0.0120136
0.0147465
0.016985
0.0180355
0.0175617
0.0163259
0.0109155
0.011036
0.0106683
0.00984421
0.00867718
0.00737236
0.00624187
0.00564435
0.00572237
0.0062181
0.00685156
0.00763541
0.00887626
0.0108514
0.0134567
0.0162002
0.0183944
0.0194396
0.0191272
0.0183788
0.0116921
0.0114873
0.0108281
0.00976131
0.00841293
0.00701053
0.00590394
0.00545533
0.00574269
0.00645348
0.0073543
0.00846965
0.0100823
0.0123335
0.0150756
0.0178381
0.0200246
0.0211213
0.0210417
0.0208148
0.0128876
0.0123178
0.011326
0.00997264
0.00840157
0.00686324
0.0057359
0.00540366
0.00588625
0.00684475
0.00804047
0.00952002
0.0114871
0.0140014
0.0168699
0.0196787
0.0218954
0.0230982
0.0233094
0.0236165
0.0119459
0.00838041
0.00407255
0.00342055
0.00795557
0.0124902
0.0161489
0.0186325
0.0206486
0.0207543
0.00941449
0.00645938
0.0031592
0.00305138
0.00615462
0.00871724
0.010003
0.0101259
0.0107125
0.0122928
0.00684271
0.0045035
0.00246166
0.00342313
0.0059422
0.00811996
0.00958028
0.0106983
0.0124498
0.0117594
0.00455622
0.00292026
0.00250942
0.00414693
0.0063235
0.00835887
0.0103078
0.0127097
0.0144255
0.0123955
0.00293015
0.00243297
0.00330509
0.00495776
0.00684505
0.00888647
0.0113722
0.0140857
0.0150108
0.0130089
0.00240893
0.00307042
0.00424812
0.00564444
0.00727652
0.0093729
0.012025
0.0144029
0.0147977
0.0133515
0.00281107
0.0038979
0.00496556
0.0060538
0.00745754
0.00952081
0.0120325
0.013977
0.0142319
0.0134086
0.00336734
0.00447899
0.00532378
0.00609682
0.00728066
0.00920883
0.0114837
0.0131267
0.0134963
0.0132128
0.00374021
0.00472851
0.00531977
0.0057946
0.00674818
0.0085045
0.0105446
0.0120555
0.0126348
0.0128101
0.00386759
0.00466843
0.00499833
0.00519148
0.00592752
0.00751216
0.00938763
0.0108791
0.0116979
0.0122395
0.00376954
0.00435532
0.00442826
0.00434253
0.00488392
0.00634631
0.00813854
0.00966233
0.0107206
0.0115654
0.00348817
0.00385261
0.00368072
0.00332862
0.00369348
0.00512358
0.00689997
0.00850273
0.00975579
0.0108333
0.00307334
0.00322939
0.0028282
0.00218645
0.00245661
0.00397581
0.0058085
0.00747753
0.00888415
0.0101311
0.00258991
0.00257995
0.00199824
0.00100374
0.00138384
0.0031555
0.00502253
0.00672717
0.00821015
0.00953025
0.00214465
0.00208437
0.0015348
0.000707309
0.001417
0.00306141
0.00478396
0.00640016
0.00785167
0.00915671
0.00195805
0.00206776
0.00197836
0.00201658
0.00265002
0.00383152
0.00522746
0.00662773
0.0079319
0.009094
0.00229305
0.0027192
0.00309385
0.00354704
0.0042372
0.00517941
0.0062842
0.00742259
0.00849762
0.00943513
0.00316763
0.00385629
0.00454021
0.00522976
0.00600132
0.00686433
0.007791
0.00870692
0.00954244
0.0102112
0.0044348
0.00532893
0.00622129
0.00708926
0.00794902
0.00880321
0.00963513
0.0103984
0.0110197
0.0114201
0.00603595
0.0070819
0.00813239
0.00914306
0.0100953
0.0109838
0.0117891
0.0124494
0.0128961
0.0130447
0.0141498
0.0147388
0.0175257
0.0231572
0.0334261
0.0522159
0.0853407
0.140197
0.226192
0.356256
0.0144332
0.014784
0.016844
0.0207778
0.0286211
0.0452306
0.0772757
0.132442
0.22021
0.353352
0.0135992
0.0145535
0.0163453
0.0190098
0.0245778
0.0386295
0.0686788
0.122591
0.20995
0.343571
0.0132888
0.0144035
0.0158944
0.0177175
0.0214316
0.0326399
0.0596368
0.110589
0.195292
0.326762
0.0132591
0.014245
0.0154932
0.0168706
0.0192519
0.0273612
0.0501024
0.0963714
0.17627
0.303194
0.0135208
0.0145478
0.0156628
0.0167124
0.0180372
0.0228249
0.0400703
0.0800394
0.153292
0.273728
0.0146543
0.015908
0.016842
0.0173568
0.0175863
0.0191606
0.0298019
0.0620409
0.127287
0.240028
0.016413
0.0179118
0.0185893
0.0183671
0.0175714
0.016857
0.0205866
0.0435802
0.100001
0.20471
0.0177069
0.0193462
0.0197528
0.018902
0.017621
0.0168951
0.0167174
0.027995
0.0744773
0.171499
0.0174789
0.0191026
0.0193094
0.0182554
0.0177166
0.0198103
0.0221173
0.0241546
0.056063
0.145075
0.0366784
0.053866
0.0719368
0.0890699
0.102581
0.109041
0.105222
0.0932376
0.102244
0.186325
0.00984258
0.0201279
0.0354081
0.050737
0.0627327
0.0670102
0.0577838
0.029325
0.0447118
0.153531
0.025387
0.0195363
0.0233729
0.0348354
0.0466958
0.0535911
0.0510122
0.0419047
0.0699747
0.166887
0.0372059
0.030779
0.0295137
0.0366355
0.0486835
0.0607001
0.0702609
0.0821999
0.117083
0.203029
0.0407139
0.0354579
0.0341644
0.0405134
0.0535125
0.0697989
0.0880018
0.11216
0.155986
0.242167
0.0373425
0.0337923
0.033833
0.0409217
0.0550927
0.0744426
0.098711
0.131876
0.184929
0.276843
0.0289684
0.0278737
0.0300125
0.0382895
0.0532741
0.0744866
0.102982
0.143244
0.205114
0.305169
0.0190653
0.0210249
0.0252406
0.0342702
0.0492783
0.0711868
0.102432
0.148286
0.218163
0.327076
0.0157049
0.0174181
0.0216812
0.0301647
0.0442142
0.0657939
0.0985879
0.148707
0.225469
0.342857
0.0159912
0.0158539
0.0191505
0.0263568
0.0387558
0.059237
0.0926166
0.145747
0.227985
0.352641
0.01759
0.0134748
0.00842603
0.00417272
0.00350789
0.00679072
0.0104148
0.0137269
0.0165734
0.0188615
0.0205002
0.0213837
0.0213858
0.0203545
0.0181178
0.0145149
0.00955303
0.00514662
0.0103599
0.0214575
0.0101645
0.00805603
0.00389965
0.00463502
0.00870845
0.0130161
0.017111
0.0208883
0.0242976
0.027299
0.0298465
0.0318794
0.0333087
0.0340146
0.0338406
0.0325946
0.0300654
0.0260642
0.0205464
0.0140467
0.0127551
0.00450414
0.00504224
0.00917512
0.0137359
0.018173
0.0223641
0.0262697
0.0298775
0.0331837
0.0361794
0.038838
0.0411037
0.04288
0.0440297
0.0443718
0.0437004
0.0418108
0.0385855
0.0339638
0.0197409
0.00488481
0.0086698
0.0132734
0.0178397
0.022185
0.0262518
0.0300307
0.0335359
0.0367975
0.039841
0.0426765
0.0452738
0.0475511
0.0493718
0.050555
0.0508968
0.0502095
0.0484094
0.0451915
0.0259668
0.00736837
0.0119154
0.0165515
0.0209772
0.025096
0.0288753
0.0323221
0.0354732
0.0383862
0.0411261
0.0437436
0.0462409
0.0485521
0.0505286
0.0519607
0.0526245
0.0523551
0.0511759
0.0485006
0.0302994
0.00974525
0.0144671
0.019002
0.0231969
0.0269878
0.0303538
0.0333102
0.0359038
0.0382149
0.0403388
0.0423707
0.0443629
0.0462906
0.0480124
0.0492764
0.0497876
0.0493492
0.0481538
0.0452909
0.0324485
0.0116535
0.0163781
0.0207309
0.0246174
0.0279947
0.0308497
0.0332012
0.0350984
0.0366273
0.0378972
0.0390305
0.0401272
0.0412289
0.0422657
0.0430251
0.0431555
0.0423021
0.0406963
0.0371244
0.032381
0.0131829
0.0178337
0.0219245
0.0254203
0.0283048
0.0305746
0.0322501
0.0333816
0.0340527
0.0343738
0.0344715
0.0344631
0.0344313
0.0343962
0.0342865
0.033893
0.0327953
0.0307929
0.0266512
0.0301195
0.0146355
0.0191018
0.0228002
0.0258069
0.0281295
0.0297677
0.0307414
0.0311027
0.0309414
0.0303791
0.0295611
0.0286404
0.0277732
0.0271124
0.0267868
0.0267915
0.0265552
0.0244562
0.0201556
0.0254136
0.0168306
0.020447
0.0235162
0.0259466
0.027692
0.0287324
0.0290864
0.0288193
0.0280452
0.0269216
0.0256382
0.0244023
0.0234319
0.0229644
0.0232515
0.0244045
0.0256063
0.0232063
0.0170574
0.0209664
0.019086
0.0216615
0.0240748
0.0260194
0.0273633
0.0280605
0.0281303
0.0276532
0.0267677
0.0256624
0.024552
0.023636
0.0230358
0.0227517
0.0226695
0.022615
0.0222894
0.0206907
0.0182873
0.0193013
0.0204812
0.0224605
0.0244078
0.0259851
0.0270386
0.0275108
0.0274117
0.0268096
0.0258216
0.0246058
0.0233429
0.0222068
0.021331
0.0207736
0.0205123
0.0204805
0.0205597
0.0206849
0.021771
0.0193396
0.0211126
0.0229778
0.0246791
0.0260131
0.0268616
0.0271828
0.0269902
0.0263532
0.025384
0.0242275
0.0230474
0.0220049
0.0212356
0.0208217
0.0207785
0.021057
0.0215584
0.0222697
0.0236551
0.0200162
0.0217284
0.0234562
0.0249847
0.0261509
0.0268583
0.0270804
0.0268418
0.0262196
0.0253281
0.0243107
0.0233257
0.0225274
0.022043
0.0219499
0.0222482
0.0228464
0.0235657
0.0241915
0.0246509
0.0209831
0.0224546
0.0240048
0.0253823
0.0264186
0.0270219
0.0271743
0.0269117
0.0263163
0.0255091
0.0246366
0.023856
0.0233144
0.0231324
0.0233704
0.0239932
0.0248596
0.0257031
0.0261472
0.0257958
0.0220762
0.0232688
0.0246303
0.0258684
0.0267926
0.0273128
0.0274084
0.0271195
0.0265368
0.0257867
0.0250203
0.0243946
0.024058
0.0241211
0.024633
0.0255345
0.0266408
0.0276316
0.0280589
0.0274133
0.023185
0.0241089
0.0252884
0.0263928
0.0272246
0.0276671
0.027703
0.0273732
0.0267729
0.0260349
0.0253143
0.0247735
0.0245642
0.0247962
0.0255092
0.0266322
0.0279642
0.0291542
0.029733
0.0291818
0.0242333
0.0249014
0.0259081
0.0268976
0.0276359
0.0280052
0.0279706
0.0275777
0.0269238
0.026146
0.0254058
0.0248742
0.0247087
0.0250276
0.025868
0.0271545
0.0286741
0.0300713
0.0308901
0.0306329
0.0251452
0.0255792
0.0264257
0.0273067
0.0279604
0.0282482
0.0281322
0.0276511
0.0269059
0.0260374
0.0252152
0.0246187
0.0244199
0.024744
0.0256392
0.0270203
0.0286769
0.030258
0.0313172
0.0313904
0.0258796
0.0260857
0.0267862
0.0275619
0.028132
0.0283321
0.0281204
0.0275292
0.0266592
0.0256558
0.0246953
0.0239703
0.0236649
0.0239244
0.0248002
0.0262115
0.0279433
0.0296504
0.0309139
0.0312767
0.0263996
0.0263895
0.0269417
0.027618
0.0281017
0.028211
0.0278916
0.0271716
0.0261508
0.0249785
0.023835
0.0229266
0.0224548
0.0225838
0.023378
0.0247586
0.0265058
0.0282856
0.02969
0.0302916
0.0267122
0.0264734
0.0268744
0.0274489
0.02784
0.0278561
0.0274208
0.0265607
0.0253731
0.0240068
0.02265
0.0215173
0.0208303
0.0207759
0.0214373
0.0227363
0.0244523
0.0262519
0.027744
0.0285226
0.0268101
0.0263317
0.0265744
0.027039
0.0273417
0.0272566
0.0267038
0.0256986
0.0243368
0.0227682
0.0211806
0.0197965
0.0188558
0.0185769
0.0190628
0.0202439
0.0218896
0.0236713
0.0252088
0.0261211
0.0267277
0.0259833
0.0260547
0.0263972
0.0266055
0.0264213
0.0257501
0.0246017
0.0230687
0.0212988
0.0194765
0.0178304
0.0166128
0.016073
0.0163519
0.0173878
0.018941
0.0206763
0.0222298
0.0232404
0.0265055
0.0254617
0.0253306
0.0255459
0.0256485
0.0253659
0.0245786
0.0232949
0.0216021
0.019645
0.0176018
0.0156926
0.0141834
0.0133569
0.0133996
0.0142715
0.0157161
0.0173889
0.018937
0.0200236
0.0261867
0.0248135
0.0244532
0.024514
0.0245028
0.024114
0.0232154
0.0218061
0.0199702
0.0178468
0.0156093
0.0134577
0.0116558
0.0105144
0.0102909
0.0109839
0.0123136
0.0139119
0.0154381
0.016583
0.02584
0.0240874
0.0234597
0.0233389
0.0231954
0.0226954
0.0216881
0.0201631
0.0182037
0.0159482
0.0135556
0.0112045
0.00913207
0.00764676
0.00710784
0.00760451
0.00881785
0.0103319
0.0118189
0.0130028
0.0255203
0.0233475
0.0224009
0.0220648
0.0217671
0.0211441
0.0200237
0.0183901
0.0163278
0.0139758
0.0114904
0.00902163
0.00675259
0.00492367
0.00397499
0.00423744
0.0053396
0.00674709
0.00816045
0.00936002
0.0252906
0.0226626
0.0213556
0.0207476
0.0202643
0.0194958
0.0182506
0.0165088
0.0143623
0.011959
0.00947065
0.00705636
0.00485106
0.00300051
0.00174634
0.00162439
0.00241613
0.00348454
0.00465504
0.00578842
0.0252182
0.0221023
0.0203737
0.0194566
0.0187361
0.0177887
0.0163967
0.0145364
0.0123126
0.0099149
0.00757768
0.00558075
0.00421226
0.00365196
0.00362316
0.00361109
0.00335399
0.00291103
0.00266868
0.00304048
0.00983178
0.0130962
0.0158506
0.0163181
0.0157082
0.0148399
0.0144696
0.0147051
0.0148758
0.0141148
0.0206761
0.0245178
0.0263622
0.0237254
0.0197653
0.0163758
0.0142206
0.0131666
0.0124995
0.0114141
0.023803
0.0241796
0.0259753
0.024961
0.0213245
0.0171981
0.0138926
0.011689
0.0101644
0.00869804
0.0259021
0.023912
0.0240368
0.0236921
0.0209914
0.0170017
0.0131562
0.0101776
0.00802216
0.00626341
0.0283151
0.0252764
0.0233189
0.0221236
0.0196468
0.0159146
0.0119693
0.00863096
0.0061243
0.00428061
0.0307607
0.0273141
0.0237195
0.0211127
0.0181551
0.0144566
0.010554
0.00712499
0.00453334
0.00288144
0.0327256
0.0291041
0.0244922
0.0205906
0.0168745
0.0129867
0.00912533
0.00575307
0.00326537
0.00221584
0.0338753
0.0301843
0.0250526
0.020251
0.0158216
0.0116499
0.00781864
0.00458237
0.0023683
0.00220906
0.0340852
0.0303969
0.0251145
0.0198137
0.0148922
0.0104862
0.00668769
0.00363454
0.00186393
0.00245028
0.033364
0.0297781
0.0245987
0.0191463
0.0139853
0.00945841
0.00573106
0.00291274
0.00168557
0.00265084
0.0318204
0.028435
0.023537
0.0181972
0.0130328
0.00852655
0.00492437
0.00237946
0.00166745
0.00271705
0.029605
0.0265145
0.0220251
0.0169795
0.0120045
0.00764337
0.00423113
0.00198557
0.00166703
0.00264149
0.0268897
0.0241662
0.0201675
0.0155402
0.0108889
0.00678214
0.00361284
0.00166737
0.0016021
0.00243729
0.0238169
0.0215209
0.0180555
0.0139273
0.00969898
0.00592778
0.00303458
0.00135965
0.00144709
0.00213747
0.0205174
0.0186758
0.0157712
0.0121942
0.00844556
0.0050674
0.00247055
0.00101618
0.00122279
0.0018064
0.0170789
0.0157123
0.0133832
0.0103852
0.00716025
0.00420884
0.00192458
0.000669366
0.0010364
0.00159478
0.0135674
0.0126886
0.0109434
0.00854713
0.00588308
0.0034103
0.00150755
0.000689343
0.00118671
0.00177753
0.0100384
0.00966457
0.00852344
0.00676519
0.00472439
0.00284014
0.00158213
0.00137894
0.00184528
0.00247677
0.00660012
0.00676567
0.00629175
0.00526556
0.0039794
0.00288466
0.00236722
0.00246724
0.00292303
0.00360529
0.00378339
0.00449814
0.00478392
0.00459422
0.00415629
0.00377952
0.00367785
0.0038673
0.00434916
0.0050914
)
;

boundaryField
{
    down
    {
        type            symmetryPlane;
    }
    right
    {
        type            calculated;
        value           nonuniform List<scalar> 
30
(
0.0229125
0.0247358
0.0261706
0.027112
0.0275407
0.0274906
0.0270122
0.0261587
0.0249905
0.023591
0.0220673
0.020607
0.0191498
0.0177516
0.0164569
0.0152925
0.0142841
0.0134354
0.012757
0.0122535
0.0119422
0.0118578
0.0120433
0.0125417
0.0134086
0.0146611
0.0163259
0.0183788
0.0208148
0.0236165
)
;
    }
    up
    {
        type            symmetryPlane;
    }
    left
    {
        type            calculated;
        value           uniform 0;
    }
    cylinder
    {
        type            symmetry;
    }
    defaultFaces
    {
        type            empty;
    }
}


// ************************************************************************* //
