/*--------------------------------*- C++ -*----------------------------------*\
| =========                 |                                                 |
| \\      /  F ield         | OpenFOAM: The Open Source CFD Toolbox           |
|  \\    /   O peration     | Version:  2112                                  |
|   \\  /    A nd           | Website:  www.openfoam.com                      |
|    \\/     M anipulation  |                                                 |
\*---------------------------------------------------------------------------*/
FoamFile
{
    version     2.0;
    format      ascii;
    arch        "LSB;label=32;scalar=64";
    class       volScalarField;
    location    "0";
    object      error_Phi;
}
// * * * * * * * * * * * * * * * * * * * * * * * * * * * * * * * * * * * * * //

dimensions      [0 2 -1 0 0 0 0];

internalField   nonuniform List<scalar> 
2000
(
0.0258158
0.0259314
0.0316299
0.0377813
0.0412273
0.0411388
0.0383834
0.0344007
0.030528
0.027565
0.0213858
0.0234511
0.0301342
0.0365404
0.0397504
0.0391753
0.0358181
0.0312781
0.0269165
0.0235821
0.0163351
0.0205514
0.0284848
0.035443
0.0387041
0.0378692
0.0341138
0.0291659
0.024471
0.0208924
0.0115446
0.0179605
0.0272447
0.0349248
0.0384477
0.0375775
0.0336442
0.0285067
0.0236808
0.0200818
0.00779306
0.0162838
0.0268699
0.0352983
0.0391916
0.0384595
0.0345638
0.0294472
0.0247087
0.0212849
0.00564507
0.0159535
0.0276152
0.0366832
0.0409647
0.0404979
0.0368171
0.0319335
0.0274685
0.0243746
0.00540076
0.0171285
0.0295146
0.0390018
0.0436183
0.0434936
0.0402026
0.0357344
0.0316923
0.0290239
0.00709544
0.0198084
0.0324877
0.0420708
0.0469057
0.0471491
0.0443602
0.0404271
0.0369176
0.0347314
0.0106151
0.0238448
0.0363455
0.0456892
0.0505262
0.0511069
0.0488444
0.0455289
0.0425939
0.0408865
0.0157331
0.029026
0.0409152
0.0496242
0.054225
0.0550009
0.0532387
0.050506
0.0481078
0.0468047
0.0416731
0.0446796
0.0321619
0.0160981
0.00475821
0.000469342
0.00115857
0.00355912
0.00520971
0.00498601
0.0254682
0.0281118
0.0162308
0.00104633
0.00972349
0.0138659
0.013166
0.0105953
0.00846129
0.0078916
0.0113328
0.0140871
0.00316822
0.0110002
0.0212679
0.025425
0.0249208
0.0223654
0.0199119
0.0186936
0.000760078
0.00235596
0.00735068
0.0203537
0.030056
0.034251
0.0340226
0.0316264
0.0290434
0.0273719
0.0108337
0.00729207
0.0156931
0.0274003
0.0363775
0.0404775
0.0404693
0.038311
0.0357369
0.0338277
0.0188832
0.0150257
0.0221699
0.032489
0.0405479
0.04433
0.0443895
0.0423904
0.0399161
0.0379518
0.024816
0.0209265
0.0269897
0.0359433
0.0429418
0.0461359
0.0460001
0.044014
0.0416006
0.0396882
0.0284885
0.0249413
0.0302519
0.0380132
0.0438815
0.0462797
0.0456888
0.0434827
0.0409929
0.039092
0.0298068
0.0270528
0.0320262
0.0388533
0.0436833
0.0451874
0.0439279
0.0412532
0.0384481
0.0363832
0.0288202
0.0272929
0.0324001
0.0386902
0.0426841
0.0433143
0.0412824
0.0379652
0.03462
0.0320512
0.00295668
0.000565963
0.00519074
0.0103676
0.0156826
0.0208703
0.0257909
0.0304026
0.0347247
0.0388257
0.0428079
0.0468129
0.0510146
0.0556214
0.0608668
0.0669972
0.0742547
0.0828617
0.0929985
0.104801
0.00864897
0.0106139
0.0137842
0.0176475
0.0217866
0.0259133
0.0298573
0.033541
0.0369538
0.0401396
0.0431921
0.0462496
0.0495005
0.0531751
0.0575369
0.0628599
0.0694141
0.0774396
0.0871282
0.0986157
0.018404
0.0190835
0.0210417
0.0238132
0.0269866
0.0302554
0.0334156
0.0363503
0.0390156
0.0414282
0.0436634
0.04586
0.0482198
0.0509987
0.0544953
0.0590247
0.0648919
0.0723621
0.0816477
0.092888
0.0263261
0.0260356
0.027029
0.0289136
0.0313042
0.0338873
0.0364318
0.0387869
0.0408686
0.0426595
0.0442112
0.0456527
0.0471959
0.0491271
0.0517872
0.055539
0.0607323
0.0676731
0.076596
0.0876538
0.0323736
0.0314829
0.0317902
0.032991
0.0347578
0.0367956
0.0388664
0.0407937
0.0424537
0.0437858
0.044805
0.0456198
0.0464448
0.0475929
0.0494514
0.0524426
0.0569762
0.063407
0.0720052
0.0829416
0.036462
0.0353906
0.0353261
0.0360623
0.0373555
0.0389699
0.0406903
0.0423278
0.0437237
0.0447652
0.0454177
0.0457542
0.0459771
0.0464201
0.0475226
0.0497731
0.0536567
0.0595929
0.0678991
0.0787716
0.0385174
0.0376843
0.0375759
0.0380853
0.0390805
0.0404118
0.0419096
0.0433919
0.0446707
0.0455852
0.0460384
0.0460508
0.0457994
0.0456273
0.0460236
0.0475562
0.050798
0.0562489
0.0642907
0.0751532
0.0385034
0.0382657
0.0383985
0.0389509
0.039897
0.0411556
0.0425986
0.0440641
0.0453571
0.0462801
0.0466788
0.0465116
0.0459119
0.0452198
0.0449658
0.045803
0.048407
0.0533813
0.0611808
0.0720848
0.0363685
0.0369484
0.0376109
0.0385782
0.0398427
0.0413212
0.0429124
0.0444912
0.0458907
0.0469103
0.0473581
0.0471304
0.0462996
0.0451815
0.0443385
0.0445059
0.0464796
0.0509791
0.0585583
0.0695538
0.0319847
0.0334763
0.035274
0.0371823
0.0391499
0.0411209
0.0430295
0.044813
0.0463671
0.0475244
0.0480836
0.0478825
0.0469237
0.0454761
0.0441108
0.0436446
0.0449956
0.0490258
0.0564027
0.0675377
0.026891
0.0294363
0.0324121
0.0354144
0.038258
0.0408593
0.043182
0.045212
0.0469002
0.0481254
0.0487055
0.0484693
0.0473911
0.0457131
0.0440081
0.0431343
0.0440834
0.0477958
0.0550113
0.066184
0.0240076
0.0274163
0.0311056
0.0347549
0.0381336
0.0411353
0.0437213
0.0458886
0.0476093
0.0487861
0.0492594
0.0488782
0.0476307
0.0457717
0.0438855
0.042837
0.0436288
0.0472078
0.0543208
0.0654264
0.0225458
0.0264252
0.0305165
0.0345082
0.0381951
0.0414413
0.0442045
0.0464728
0.0482186
0.049356
0.0497398
0.0492399
0.047862
0.0458726
0.043865
0.0427091
0.043407
0.046909
0.0539621
0.0650293
0.0225807
0.0265297
0.0306748
0.0347529
0.0385335
0.0418733
0.0447172
0.047034
0.0487825
0.0498754
0.0501793
0.0495807
0.0481032
0.0460275
0.0439523
0.0427455
0.0434048
0.0468772
0.0539067
0.0649595
0.0239091
0.0276173
0.031564
0.0354851
0.0391768
0.0424809
0.0453114
0.0476171
0.0493379
0.0503761
0.0506042
0.0499222
0.0483714
0.0462463
0.0441474
0.0429392
0.0436073
0.0470886
0.0541255
0.0651825
0.0262668
0.029517
0.0330714
0.0366735
0.0401362
0.04328
0.0460107
0.0482475
0.0499068
0.0508763
0.0510288
0.0502759
0.0486755
0.0465318
0.0444496
0.0432808
0.043997
0.0475227
0.0545893
0.0656647
0.0293513
0.0320367
0.0350682
0.0382441
0.0413544
0.0442554
0.046814
0.0489295
0.0504944
0.0513809
0.051458
0.0506463
0.0490176
0.0468865
0.0448544
0.0437608
0.0445589
0.048153
0.0552702
0.0663738
0.0328844
0.0349485
0.0374089
0.0400764
0.0427888
0.0453679
0.0476985
0.0496516
0.0510951
0.0518865
0.0518891
0.0510321
0.0493964
0.0473053
0.0453552
0.0443679
0.0452747
0.0489607
0.0561418
0.0672801
0.0366185
0.0380689
0.0399382
0.0420783
0.0443352
0.0465641
0.0486279
0.0503865
0.0516903
0.0523804
0.0523144
0.0514254
0.0498075
0.047784
0.0459433
0.0450906
0.0461287
0.0499247
0.0571807
0.0683568
0.0403174
0.0412074
0.0425083
0.0441211
0.045921
0.0477735
0.0495513
0.0510991
0.0522523
0.0528403
0.0527163
0.0518172
0.0502397
0.0483125
0.0466101
0.0459154
0.0471076
0.0510283
0.0583661
0.0695812
0.0437942
0.0441731
0.0449638
0.0460746
0.0474399
0.0489235
0.050412
0.0517453
0.0527501
0.0532436
0.053078
0.0521907
0.0506837
0.0488808
0.0473451
0.046834
0.0481972
0.0522551
0.0596809
0.0709343
0.0468668
0.0468302
0.0471675
0.0478415
0.0487951
0.0499368
0.0511492
0.0522793
0.0531454
0.0535627
0.0533771
0.05253
0.0511249
0.0494791
0.0481393
0.0478346
0.0493873
0.0535924
0.061112
0.072401
0.0494312
0.0490626
0.049025
0.0493121
0.0499038
0.0507386
0.0517033
0.0526503
0.0534012
0.0537661
0.0535919
0.05282
0.0515523
0.0500973
0.0489825
0.0489095
0.0506694
0.0550326
0.0626477
0.0739702
0.0513832
0.0507668
0.0504281
0.0503978
0.0506904
0.0512607
0.0520135
0.0528125
0.0534791
0.053826
0.0536992
0.0530414
0.0519513
0.0507246
0.0498666
0.0500496
0.0520338
0.0565664
0.0642818
0.0756343
0.0526774
0.0518827
0.0513172
0.0510344
0.05109
0.0514425
0.0520307
0.0527228
0.0533465
0.0537151
0.053679
0.0531795
0.0523097
0.0513509
0.0507839
0.0512491
0.0534779
0.05819
0.0660092
0.0773891
0.0532853
0.0523739
0.0516329
0.051174
0.0510405
0.051236
0.0517106
0.0523446
0.0529711
0.0534098
0.0535124
0.0532202
0.0526157
0.0519673
0.0517259
0.052503
0.0549948
0.0598998
0.0678274
0.0792328
0.053232
0.052226
0.0513753
0.0507755
0.0505136
0.0506067
0.0510214
0.0516472
0.0523284
0.0528887
0.0531834
0.0531486
0.0528602
0.0525649
0.052688
0.0538063
0.0565829
0.0616946
0.0697365
0.0811657
0.052542
0.0514742
0.0505332
0.0498349
0.0494964
0.0495367
0.0499418
0.0506138
0.0514022
0.0521384
0.0526778
0.0529547
0.0530329
0.0531365
0.0536634
0.0551532
0.0582392
0.063572
0.0717369
0.0831901
0.051265
0.05014
0.0491321
0.0483741
0.0479798
0.0480203
0.0484654
0.0492326
0.0501823
0.0511483
0.0519879
0.0526305
0.053126
0.0536756
0.054645
0.0565392
0.0599597
0.0655321
0.0738296
0.0853084
0.0494811
0.0482877
0.0472112
0.0464091
0.0459987
0.0460671
0.0465937
0.0475047
0.0486642
0.0499135
0.0511077
0.0521688
0.0531324
0.0541736
0.0556269
0.0579603
0.0617422
0.0675725
0.0760143
0.0875235
0.0468835
0.0408941
0.0345767
0.0285765
0.0235313
0.0199663
0.0182146
0.0184056
0.0205074
0.0241628
0.0482248
0.0425529
0.0364204
0.0304242
0.02515
0.0210882
0.0185495
0.0176427
0.0182828
0.0206775
0.0504018
0.0451732
0.0393554
0.0334866
0.0280741
0.0235735
0.0202709
0.018341
0.0178722
0.019284
0.0530048
0.048303
0.0429097
0.0372849
0.0318714
0.0270576
0.0231795
0.0204719
0.0192206
0.0197724
0.0556607
0.0515479
0.0466741
0.0414028
0.0361274
0.0312084
0.0269758
0.023767
0.0219377
0.0217163
0.0580783
0.0545707
0.0502759
0.0454846
0.040499
0.0356729
0.0313367
0.0278628
0.0255892
0.0247187
0.0600528
0.0571489
0.0534715
0.0492338
0.0446974
0.0401449
0.0359164
0.032374
0.0298201
0.0284353
0.0614523
0.0591434
0.0560984
0.0524796
0.0484913
0.0443639
0.0404199
0.0369595
0.0342835
0.0325334
0.062245
0.0604873
0.0580673
0.055093
0.0517174
0.04814
0.0445934
0.0413669
0.0386973
0.0367413
0.0624326
0.0611805
0.059358
0.0570362
0.0543131
0.0513222
0.0482761
0.045379
0.0428341
0.0408204
0.0620553
0.0612442
0.0599851
0.0582894
0.0562171
0.0538513
0.0513381
0.0488351
0.0465259
0.0445624
0.0611875
0.0607669
0.0600145
0.0588979
0.057447
0.055691
0.0537238
0.051658
0.0496353
0.0478134
0.0599075
0.0598232
0.0595109
0.0589209
0.0580391
0.0568578
0.0554144
0.0537896
0.0520931
0.0504652
0.0583186
0.0585045
0.0585694
0.0584312
0.0580581
0.057392
0.0564295
0.0552239
0.0538647
0.0524538
0.0565035
0.0569127
0.0572774
0.0575375
0.057589
0.0573692
0.0568295
0.0560005
0.0549347
0.0537367
0.0545406
0.0551257
0.05574
0.0563088
0.0567107
0.0568532
0.056678
0.0561575
0.0553511
0.0543285
0.0525214
0.0532247
0.0540363
0.0548501
0.0555307
0.0559606
0.0560458
0.0557753
0.0551493
0.0542557
0.0505189
0.0513121
0.0522574
0.0532394
0.0541221
0.0547562
0.0550362
0.0549113
0.0543965
0.0535716
0.0485776
0.0494312
0.0504749
0.0515763
0.0525808
0.0533304
0.0537209
0.0536652
0.0531868
0.0523412
0.0467635
0.0476559
0.0487512
0.049911
0.0509744
0.0517764
0.052187
0.0521254
0.0515868
0.0506462
0.0538469
0.0561577
0.0596056
0.0639919
0.0689361
0.0738683
0.0779136
0.0797238
0.0773212
0.0679701
0.0545979
0.0570632
0.0606197
0.0650869
0.0701019
0.0750828
0.0791482
0.0809998
0.078668
0.0695082
0.0556793
0.0581133
0.0615265
0.0657632
0.0704702
0.0750766
0.078739
0.0801892
0.0776005
0.0684633
0.0568726
0.0591529
0.0622562
0.0660442
0.0701577
0.0740486
0.076911
0.0775805
0.0743937
0.0650835
0.0580633
0.0600462
0.0627302
0.0659355
0.0693041
0.0722539
0.0740187
0.0735639
0.0694614
0.0597655
0.0589321
0.0605524
0.0627839
0.0654206
0.068012
0.069929
0.0704022
0.0685715
0.0632769
0.0530285
0.0590749
0.0603455
0.062224
0.0644157
0.0663403
0.0672598
0.066394
0.0630114
0.0563466
0.0453917
0.0581007
0.0591286
0.0608201
0.0627675
0.0642494
0.064336
0.0622009
0.0572415
0.0490933
0.0373875
0.0557334
0.0566686
0.0583922
0.0603727
0.0616708
0.0611914
0.057956
0.0515108
0.0419105
0.0294934
0.0518943
0.0529412
0.0549119
0.0571636
0.0585818
0.0578134
0.0537424
0.0460175
0.0351386
0.0221388
0.0891523
0.0868213
0.0848646
0.0833734
0.0821216
0.0805167
0.0775156
0.0716947
0.0612521
0.0439816
0.0777949
0.0744375
0.0712846
0.0685988
0.066392
0.0642761
0.0613739
0.0562989
0.0471935
0.0316932
0.0704329
0.0668109
0.0631742
0.0598536
0.0570495
0.054568
0.0517217
0.0471953
0.039138
0.0250126
0.0654183
0.0622053
0.0588542
0.0556532
0.0528583
0.0504283
0.0478121
0.0438154
0.03659
0.023518
0.0616859
0.0593227
0.0568656
0.0544941
0.0523924
0.0505421
0.0485065
0.0451653
0.0386882
0.0264153
0.0587103
0.0574068
0.0562008
0.0551361
0.0542667
0.0535229
0.0524395
0.0499512
0.0442267
0.0325793
0.0563126
0.0560938
0.0562599
0.0567183
0.0573776
0.0580428
0.0581915
0.0567184
0.0517961
0.0406898
0.0545202
0.0553222
0.0567455
0.0586612
0.0608698
0.0630147
0.0644853
0.0641005
0.0599829
0.0493903
0.0535566
0.0551212
0.0575525
0.0606662
0.064173
0.0676357
0.0703046
0.0709181
0.067553
0.0574343
0.0535577
0.0555011
0.058566
0.0624951
0.0669412
0.0713556
0.0749167
0.0762974
0.0735274
0.0638373
0.0806828
0.0818937
0.0832217
0.0846382
0.0861601
0.0877684
0.0894379
0.0911465
0.0928447
0.094486
0.0960071
0.097339
0.0983895
0.0990765
0.0992954
0.0989798
0.0980586
0.0965083
0.0943688
0.0917736
0.0778522
0.0789271
0.0800689
0.081267
0.0825273
0.0838312
0.0851653
0.0865005
0.0877918
0.0890088
0.0900855
0.0909613
0.0915619
0.0918209
0.0916334
0.0909116
0.0895656
0.0875203
0.0847703
0.0813491
0.0756987
0.0767096
0.0777456
0.0788217
0.07992
0.0810289
0.0821225
0.0831701
0.0841466
0.0849928
0.0856761
0.0861324
0.0863164
0.0861444
0.0855652
0.0844937
0.0828662
0.0806207
0.077695
0.0741232
0.0741248
0.0751226
0.0761425
0.0771735
0.0781915
0.0791991
0.0801442
0.0810005
0.0817376
0.0823021
0.0826395
0.0827161
0.0824725
0.0818658
0.0808524
0.0794107
0.0774834
0.0750634
0.0721337
0.0687262
0.0730568
0.0740938
0.0751383
0.0761819
0.0772028
0.0781748
0.0790571
0.0798138
0.0803852
0.0807386
0.0807917
0.0805263
0.0798726
0.0788047
0.0773244
0.0754255
0.0731355
0.0704876
0.0675344
0.0643668
0.0724308
0.0735247
0.074639
0.0757465
0.0768159
0.0778206
0.0787079
0.0794197
0.0799028
0.0800914
0.0799311
0.0793542
0.0783066
0.0767848
0.0747835
0.0723705
0.0696192
0.0666577
0.0636261
0.0606833
0.0721869
0.073365
0.0745724
0.0757723
0.076922
0.0779922
0.0789161
0.07964
0.0800744
0.0801571
0.0797985
0.0789487
0.0775465
0.0755594
0.0730436
0.0700702
0.0667978
0.0634377
0.0602534
0.0575327
0.0722931
0.0735563
0.074863
0.0761651
0.0774167
0.0785733
0.0795514
0.0802888
0.080687
0.0806648
0.0801355
0.0790157
0.0772573
0.07485
0.071833
0.0683224
0.0645318
0.0607415
0.0573763
0.054919
0.0726806
0.0740474
0.0754561
0.0768655
0.0782143
0.0794503
0.0804799
0.0812097
0.0815492
0.0813965
0.0806467
0.0792339
0.0770955
0.0742571
0.0707863
0.0668388
0.0626643
0.0586163
0.0551724
0.0531256
0.0733205
0.0748203
0.0763239
0.0778151
0.0792442
0.080528
0.0815797
0.0822813
0.0825078
0.0821548
0.0811196
0.0793062
0.0767126
0.0733782
0.0694373
0.0651327
0.0608227
0.056965
0.0541447
0.0527996
0.074456
0.0758485
0.0773096
0.078811
0.0802792
0.081605
0.082684
0.0834001
0.0836002
0.0831731
0.0820122
0.0800407
0.0772506
0.0737198
0.0696057
0.0652164
0.0609536
0.0573097
0.0547869
0.0536861
0.0758198
0.0769747
0.0783339
0.0797837
0.0812433
0.0826057
0.0837382
0.0845161
0.0847974
0.0844524
0.0833745
0.081496
0.0788047
0.0753507
0.0712991
0.066933
0.0626092
0.0587821
0.0559006
0.0543182
0.0771467
0.0781437
0.0793922
0.0808029
0.0822492
0.083627
0.0847965
0.0856251
0.0859838
0.0857152
0.0847354
0.0829486
0.0803431
0.0769775
0.0730031
0.0686576
0.064304
0.0603477
0.0572023
0.0552365
0.0784275
0.0792888
0.0804495
0.0817959
0.0832259
0.0846093
0.0858097
0.0866881
0.0870985
0.0869072
0.0860043
0.0842881
0.0817708
0.0784748
0.074545
0.0702232
0.0658386
0.0617787
0.0584392
0.056157
0.0796427
0.0803825
0.0814409
0.0827299
0.0841229
0.0855042
0.0867217
0.0876399
0.0881071
0.0879736
0.0871243
0.0854726
0.0829973
0.0797482
0.0758394
0.0715238
0.0670956
0.0629328
0.0594297
0.0568944
0.0807532
0.0813677
0.0823311
0.0835523
0.08492
0.0862842
0.0875173
0.0884585
0.08896
0.088867
0.0880592
0.0864465
0.0840051
0.0807647
0.0768618
0.0725155
0.0680202
0.06376
0.0601124
0.0573773
0.0817205
0.0822076
0.0830756
0.0842303
0.0855573
0.086902
0.0881424
0.0891026
0.0896298
0.0895739
0.0888001
0.0872249
0.084793
0.081555
0.0776216
0.0732203
0.0686583
0.0642976
0.0605199
0.0576363
0.0825269
0.0828762
0.0836501
0.084732
0.0860046
0.08734
0.0885722
0.089551
0.0901089
0.0900914
0.0893494
0.0877866
0.0853663
0.0821209
0.0781657
0.0737267
0.0690937
0.0646358
0.0607366
0.0577348
0.0831165
0.0833389
0.0840115
0.0850157
0.0862421
0.0875603
0.088791
0.0897905
0.0903774
0.0903832
0.0896755
0.0881553
0.0857554
0.0825195
0.0785476
0.0740732
0.0693866
0.0648704
0.0608854
0.0577815
0.0834747
0.0835623
0.0841275
0.0850705
0.0862503
0.0875345
0.0887717
0.0897852
0.0904008
0.0904566
0.0897976
0.0883129
0.085955
0.0827493
0.0787994
0.0743247
0.0696229
0.0650656
0.0610338
0.057851
0.0835784
0.0835345
0.0839971
0.0848561
0.0859893
0.0872533
0.0884949
0.0895255
0.0901887
0.0902902
0.0896932
0.0882655
0.0859698
0.0828229
0.0789217
0.0744893
0.0698176
0.0652617
0.0612165
0.05799
0.0833964
0.0832248
0.0835805
0.0843628
0.0854495
0.0866962
0.087939
0.0889979
0.0896949
0.0898544
0.0893281
0.0879835
0.0857736
0.0827071
0.0788933
0.0745375
0.0699327
0.065433
0.0614001
0.058169
0.0829086
0.0826139
0.0828682
0.0835813
0.0846206
0.0858418
0.0870803
0.0881655
0.0889083
0.0891322
0.0886785
0.0874245
0.0853145
0.0823491
0.0786496
0.0744125
0.0699193
0.0655093
0.0615355
0.0583132
0.0821157
0.0816928
0.0818516
0.0824822
0.0834723
0.0846776
0.0859133
0.0870286
0.0878138
0.0880919
0.0877241
0.0865586
0.0845514
0.0817153
0.0781438
0.0740337
0.0696837
0.065395
0.0615179
0.0583423
0.0809993
0.080443
0.0805017
0.0810657
0.0820131
0.0831798
0.0844211
0.0855459
0.0863642
0.086709
0.0864122
0.0853433
0.0834408
0.0807305
0.0772982
0.0733511
0.0691537
0.065017
0.061266
0.058161
0.0795406
0.0788758
0.0788393
0.0793215
0.0802111
0.0813441
0.0825757
0.0837048
0.0845615
0.084949
0.0847104
0.0837277
0.0819324
0.0793444
0.0760526
0.0722744
0.0682496
0.0642978
0.0606958
0.0576923
0.0777507
0.0769621
0.0768244
0.0772285
0.0780633
0.0791648
0.0803683
0.0815026
0.0823679
0.0827884
0.0826091
0.081685
0.0799825
0.0775063
0.0743692
0.0707592
0.0669307
0.063171
0.0597474
0.0568746
0.0756001
0.0747016
0.074466
0.0747945
0.0755557
0.0766157
0.0777897
0.0789064
0.0797666
0.0802059
0.080052
0.0791946
0.0775658
0.0752066
0.0722045
0.0687784
0.0651469
0.0616039
0.058376
0.0556728
0.0731083
0.0720934
0.0717524
0.0719962
0.0726934
0.0736897
0.0748202
0.0759038
0.076752
0.0771827
0.0770376
0.0762123
0.074656
0.0723874
0.0695396
0.066292
0.0628873
0.0595649
0.0565799
0.0540762
0.0702439
0.0691254
0.0686904
0.0688393
0.0694505
0.0703792
0.0714503
0.0724829
0.0732903
0.0736934
0.0735491
0.0727404
0.0712356
0.0690618
0.0663583
0.0632952
0.0601282
0.0570713
0.0543372
0.052064
0.0533532
0.0537686
0.0545173
0.0556091
0.0568984
0.0580206
0.0584675
0.0577804
0.055628
0.0519358
0.0540228
0.0538286
0.0539841
0.0548868
0.0562613
0.0575957
0.0583364
0.0579829
0.056208
0.0529044
0.0546715
0.0542308
0.0541195
0.0548515
0.056231
0.0577276
0.0587395
0.058759
0.0574156
0.054593
0.0551836
0.0546039
0.0544849
0.0551827
0.0565774
0.0582004
0.0594646
0.0598306
0.0589425
0.0566341
0.0555608
0.054869
0.054834
0.0556011
0.0570696
0.0588116
0.0602905
0.0609742
0.0605023
0.058711
0.0557806
0.0550027
0.0550601
0.0559648
0.0575406
0.0593944
0.0610289
0.0619609
0.0618574
0.0605588
0.055848
0.0550148
0.0551631
0.0561942
0.0578782
0.0598153
0.0615484
0.0626649
0.0628596
0.0619872
0.055821
0.054977
0.0551792
0.0562987
0.0580388
0.0600036
0.0617777
0.0629981
0.0634156
0.0629056
0.0557826
0.0549204
0.0551486
0.0562831
0.0580004
0.059919
0.0616539
0.0629084
0.0634737
0.0632599
0.0557943
0.0549026
0.0550921
0.0561617
0.0577705
0.0595697
0.0612007
0.0624162
0.0630594
0.0630669
0.055867
0.0549092
0.0550006
0.0559208
0.0573587
0.058954
0.0604172
0.0615413
0.0622109
0.0623784
0.0559845
0.0549129
0.0548451
0.0555673
0.0567633
0.058114
0.05936
0.0603431
0.0609771
0.0612589
0.0560637
0.0548629
0.0546036
0.0550724
0.055991
0.0570527
0.0580572
0.0588625
0.0594387
0.059785
0.0560424
0.0546878
0.0542189
0.0544348
0.055047
0.0558212
0.056564
0.0571764
0.0576614
0.058038
0.0558259
0.054337
0.0536651
0.0536241
0.0539559
0.0544374
0.0549199
0.0553437
0.0557313
0.0561087
0.0553583
0.0537572
0.0529219
0.0526523
0.0527208
0.0529346
0.0531765
0.0534228
0.0537116
0.0540736
0.0545779
0.0529357
0.0519752
0.0515233
0.0513631
0.0513504
0.0513865
0.0514699
0.0516612
0.0519933
0.0534677
0.0518398
0.0508265
0.0502424
0.0499211
0.0497153
0.0495817
0.0495379
0.0496336
0.0499514
0.0520126
0.0504746
0.0494705
0.0488339
0.0483985
0.0480718
0.0478134
0.0476661
0.047706
0.0479936
0.0502161
0.0488495
0.047933
0.0472997
0.0468332
0.0464338
0.0461009
0.0458997
0.04589
0.0461683
)
;

boundaryField
{
    down
    {
        type            symmetryPlane;
    }
    right
    {
        type            calculated;
        value           uniform 0;
    }
    up
    {
        type            symmetryPlane;
    }
    left
    {
        type            calculated;
        value           nonuniform List<scalar> 
30
(
0.0806828
0.0778522
0.0756987
0.0741248
0.0730568
0.0724308
0.0721869
0.0722931
0.0726806
0.0733205
0.074456
0.0758198
0.0771467
0.0784275
0.0796427
0.0807532
0.0817205
0.0825269
0.0831165
0.0834747
0.0835784
0.0833964
0.0829086
0.0821157
0.0809993
0.0795406
0.0777507
0.0756001
0.0731083
0.0702439
)
;
    }
    cylinder
    {
        type            symmetry;
    }
    defaultFaces
    {
        type            empty;
    }
}


// ************************************************************************* //
