/*--------------------------------*- C++ -*----------------------------------*\
| =========                 |                                                 |
| \\      /  F ield         | OpenFOAM: The Open Source CFD Toolbox           |
|  \\    /   O peration     | Version:  2112                                  |
|   \\  /    A nd           | Website:  www.openfoam.com                      |
|    \\/     M anipulation  |                                                 |
\*---------------------------------------------------------------------------*/
FoamFile
{
    version     2.0;
    format      ascii;
    arch        "LSB;label=32;scalar=64";
    class       volScalarField;
    location    "0";
    object      Phi_nn;
}
// * * * * * * * * * * * * * * * * * * * * * * * * * * * * * * * * * * * * * //

dimensions      [0 2 -1 0 0 0 0];

internalField   nonuniform List<scalar> 
2000
(
1.51559
1.50946
1.50416
1.49561
1.48141
1.46129
1.43653
1.40894
1.38008
1.35098
1.57392
1.57028
1.5669
1.55987
1.54695
1.52806
1.5046
1.47847
1.45128
1.42406
1.6357
1.63478
1.63366
1.62853
1.61728
1.59997
1.57813
1.55377
1.52853
1.50348
1.70139
1.70328
1.70459
1.70161
1.69234
1.67693
1.65704
1.63477
1.61181
1.58924
1.77136
1.77596
1.7797
1.77897
1.77186
1.75863
1.74101
1.72116
1.70081
1.68103
1.84571
1.85278
1.85877
1.86023
1.85539
1.84456
1.8295
1.81237
1.79494
1.77824
1.92424
1.93344
1.94135
1.94485
1.94229
1.934
1.92174
1.90762
1.89336
1.87997
2.00654
2.01742
2.02687
2.03213
2.03177
2.02612
2.01684
2.00594
1.99504
1.9851
2.09197
2.10407
2.11462
2.12132
2.123
2.11999
2.11378
2.10622
2.09878
2.09236
2.17978
2.19269
2.20389
2.21167
2.21516
2.21469
2.21155
2.20734
2.20337
2.20041
1.11247
1.10044
1.09708
1.09194
1.07784
1.0533
1.021
0.984706
0.947247
0.910052
1.1351
1.12349
1.11959
1.11368
1.09916
1.07464
1.04251
1.00623
0.968495
0.930726
1.16206
1.15044
1.14575
1.13907
1.12434
1.10016
1.06857
1.0327
0.995048
0.957058
1.19329
1.18146
1.17584
1.16835
1.15349
1.12982
1.09904
1.0639
1.02671
0.988899
1.22872
1.21667
1.2101
1.20179
1.18677
1.16365
1.1338
1.09962
1.06324
1.026
1.26819
1.25609
1.2487
1.2396
1.22437
1.20172
1.1728
1.13971
1.10438
1.06807
1.31143
1.29959
1.29166
1.28191
1.26646
1.24419
1.21611
1.18412
1.14998
1.11487
1.35807
1.34693
1.33887
1.32875
1.31317
1.29122
1.2639
1.23297
1.20007
1.16631
1.40777
1.39782
1.39014
1.38004
1.36455
1.34299
1.3164
1.2865
1.25487
1.22255
1.46028
1.45202
1.44526
1.43568
1.42062
1.39963
1.37386
1.34505
1.31473
1.28395
0.873392
0.836786
0.800266
0.763425
0.725968
0.687731
0.648665
0.608799
0.568217
0.527041
0.485423
0.443545
0.40162
0.359889
0.31862
0.278087
0.238563
0.200295
0.163493
0.128317
0.892618
0.853907
0.815429
0.776802
0.737725
0.698005
0.657557
0.616373
0.574503
0.532043
0.48913
0.445946
0.402714
0.359698
0.317193
0.275504
0.234928
0.195733
0.158137
0.122302
0.917553
0.876478
0.835788
0.795132
0.754206
0.712788
0.670752
0.628042
0.58467
0.540696
0.496239
0.451475
0.406639
0.362021
0.317949
0.274769
0.232811
0.19237
0.153682
0.116914
0.948111
0.904465
0.861324
0.818392
0.775371
0.732022
0.688176
0.643731
0.598648
0.552946
0.506715
0.460118
0.413398
0.366873
0.320913
0.27591
0.232241
0.190238
0.150161
0.112186
0.984094
0.937734
0.891951
0.846512
0.80115
0.755622
0.70973
0.663331
0.616331
0.5687
0.520484
0.471824
0.422964
0.374247
0.326089
0.278941
0.233236
0.189356
0.147594
0.108144
1.02521
0.976057
0.9275
0.879367
0.831436
0.783481
0.735299
0.686715
0.637588
0.587831
0.537438
0.486509
0.435278
0.384107
0.333461
0.283855
0.235798
0.189731
0.145993
0.104802
1.07117
1.01914
0.96772
0.916761
0.866074
0.815468
0.764753
0.713745
0.662272
0.610193
0.557439
0.504058
0.450251
0.39639
0.342986
0.290628
0.239911
0.191355
0.145357
0.102167
1.12175
1.06669
1.01231
0.958432
0.904853
0.851409
0.797938
0.744271
0.690226
0.635623
0.58033
0.524326
0.467764
0.411005
0.354598
0.299213
0.245543
0.194205
0.145671
0.100232
1.17697
1.11853
1.06101
1.00409
0.947505
0.891079
0.834666
0.778124
0.721284
0.663948
0.605934
0.547146
0.48767
0.427831
0.368205
0.309541
0.252643
0.198243
0.146906
0.098979
1.23704
1.17468
1.11365
1.05347
0.993746
0.934214
0.874709
0.815106
0.755261
0.694986
0.634067
0.572338
0.509801
0.446727
0.383694
0.321523
0.261141
0.203415
0.149021
0.0983782
1.27432
1.20953
1.14633
1.08413
1.02246
0.960998
0.899547
0.837986
0.776194
0.714002
0.651195
0.587583
0.523125
0.458056
0.392947
0.328654
0.26617
0.206439
0.1502
0.0979144
1.28602
1.22073
1.15696
1.09412
1.03178
0.969608
0.907423
0.845108
0.782549
0.719591
0.656029
0.591683
0.526518
0.460772
0.395018
0.330117
0.267063
0.206802
0.150076
0.0973447
1.2976
1.23174
1.16731
1.10378
1.04073
0.977847
0.914957
0.851932
0.78866
0.724987
0.66072
0.595689
0.52987
0.463509
0.39718
0.331741
0.268184
0.207451
0.150282
0.0971352
1.30913
1.2426
1.17742
1.11313
1.04933
0.985739
0.922158
0.858458
0.794516
0.730175
0.66525
0.599584
0.533165
0.466249
0.39941
0.333501
0.269505
0.208354
0.150784
0.0972505
1.32059
1.2533
1.1873
1.1222
1.05762
0.993295
0.929032
0.864682
0.800106
0.735141
0.669604
0.603351
0.536386
0.468973
0.401688
0.335373
0.270996
0.209479
0.151547
0.0976543
1.33187
1.26376
1.1969
1.13094
1.06557
1.00051
0.935574
0.870595
0.805417
0.739867
0.673764
0.606974
0.539516
0.471665
0.403994
0.337332
0.27263
0.210793
0.152536
0.0983112
1.34282
1.27388
1.20615
1.13933
1.07315
1.00737
0.941767
0.876179
0.81043
0.744335
0.67771
0.610433
0.542538
0.474305
0.406305
0.339354
0.274379
0.212266
0.15372
0.0991875
1.35329
1.28354
1.21496
1.14731
1.08034
1.01383
0.947587
0.881415
0.815125
0.748522
0.681422
0.61371
0.545431
0.476874
0.408604
0.341417
0.276218
0.213871
0.155068
0.100252
1.36313
1.29262
1.22324
1.15479
1.08707
1.01987
0.953002
0.886272
0.819475
0.752406
0.684878
0.616784
0.548179
0.479356
0.410871
0.343501
0.278124
0.215582
0.156553
0.101477
1.37218
1.301
1.23089
1.1617
1.09327
1.02542
0.95797
0.890717
0.823452
0.755961
0.688056
0.619636
0.550764
0.481733
0.413089
0.345586
0.280077
0.217377
0.158153
0.10284
1.38031
1.30856
1.23781
1.16796
1.09889
1.03044
0.962448
0.894714
0.827025
0.759161
0.690933
0.622246
0.553167
0.483988
0.415242
0.347658
0.282059
0.219239
0.159848
0.104319
1.38744
1.31522
1.24393
1.1735
1.10386
1.03487
0.966388
0.898224
0.830161
0.761978
0.693486
0.624594
0.555372
0.486107
0.417316
0.349702
0.284057
0.221152
0.161623
0.105901
1.39347
1.32089
1.24916
1.17824
1.1081
1.03865
0.969744
0.901208
0.832829
0.764386
0.695694
0.626663
0.557364
0.488077
0.4193
0.351706
0.286059
0.223106
0.163467
0.107572
1.39837
1.32553
1.25344
1.18213
1.11158
1.04173
0.972473
0.903629
0.834998
0.766361
0.697536
0.628436
0.55913
0.489887
0.421182
0.353661
0.288057
0.22509
0.165371
0.109326
1.40213
1.32909
1.25674
1.18511
1.11424
1.04408
0.974535
0.905455
0.836641
0.76788
0.698995
0.629899
0.560658
0.491525
0.422954
0.355559
0.290043
0.227101
0.16733
0.111158
1.40475
1.33158
1.25903
1.18717
1.11605
1.04565
0.9759
0.906657
0.837733
0.768924
0.700054
0.631039
0.561936
0.492983
0.424609
0.357395
0.292013
0.229134
0.169342
0.113067
1.40626
1.33302
1.26033
1.1883
1.11699
1.04643
0.976545
0.907214
0.838257
0.769477
0.700701
0.631845
0.562955
0.494254
0.42614
0.359163
0.293963
0.231187
0.171407
0.115051
1.40673
1.33342
1.26063
1.18848
1.11707
1.04641
0.97646
0.907115
0.838201
0.769527
0.700926
0.632307
0.563708
0.49533
0.427541
0.360859
0.29589
0.233258
0.173523
0.117114
1.40622
1.33286
1.25999
1.18776
1.11628
1.04558
0.975641
0.906354
0.837558
0.769069
0.700721
0.632418
0.564187
0.496204
0.428807
0.362478
0.297792
0.235347
0.175693
0.119258
1.40482
1.33139
1.25845
1.18617
1.11466
1.04398
0.974099
0.904935
0.836329
0.7681
0.700083
0.632175
0.564386
0.49687
0.429931
0.364015
0.299664
0.237453
0.177916
0.121487
2.20019
2.09166
1.9838
1.87791
1.77527
1.67704
1.58413
1.49723
1.41666
1.34246
2.20253
2.09648
1.99088
1.88693
1.78584
1.6887
1.59644
1.50976
1.42909
1.35457
2.20558
2.10189
1.99847
1.8964
1.79679
1.7007
1.60904
1.52253
1.44166
1.36666
2.20895
2.10752
2.0062
1.90597
1.80786
1.71284
1.62179
1.53545
1.45436
1.37882
2.2123
2.11302
2.01373
1.91533
1.81873
1.72482
1.63445
1.54834
1.46706
1.39098
2.21534
2.11809
2.02078
1.92417
1.8291
1.73636
1.64675
1.56095
1.47956
1.40298
2.21787
2.12254
2.02711
1.93227
1.83874
1.74722
1.65845
1.57306
1.49165
1.41465
2.21979
2.12624
2.03261
1.93948
1.84747
1.75721
1.66934
1.58446
1.50312
1.42578
2.22105
2.12916
2.03721
1.94571
1.8552
1.7662
1.67927
1.59497
1.5138
1.43621
2.22167
2.13129
2.04091
1.95096
1.86187
1.77411
1.68815
1.60446
1.52352
1.44577
2.2217
2.13269
2.04376
1.95524
1.86751
1.78093
1.69591
1.61286
1.5322
1.45433
2.2212
2.13345
2.04582
1.95863
1.87215
1.78668
1.70255
1.62012
1.53975
1.4618
2.22027
2.13364
2.04721
1.96121
1.87587
1.79142
1.70811
1.62625
1.54614
1.46813
2.219
2.13338
2.04802
1.96309
1.87877
1.79522
1.71265
1.63128
1.55139
1.47327
2.21748
2.13277
2.04836
1.96438
1.88095
1.79819
1.71624
1.63528
1.55553
1.47726
2.21581
2.13191
2.04833
1.96518
1.88252
1.80042
1.71898
1.63832
1.55862
1.48011
2.21406
2.13087
2.04804
1.9656
1.88359
1.80203
1.72097
1.64049
1.56073
1.48189
2.21231
2.12976
2.04757
1.96574
1.88426
1.80312
1.72231
1.64188
1.56195
1.48266
2.21062
2.12864
2.047
1.96569
1.88463
1.80378
1.7231
1.64261
1.56237
1.48252
2.20904
2.12758
2.04642
1.96552
1.88478
1.80412
1.72345
1.64276
1.56209
1.48156
3.14232
3.11864
3.09724
3.07811
3.06116
3.04613
3.03258
3.01974
3.00638
2.9908
3.06547
3.04424
3.02514
3.00817
2.9932
2.97997
2.968
2.95647
2.94414
2.9293
2.98401
2.96518
2.94826
2.93324
2.92001
2.90827
2.89752
2.88697
2.8754
2.86116
2.8983
2.88182
2.867
2.85382
2.84215
2.83165
2.82183
2.81194
2.80085
2.78705
2.80862
2.79448
2.78175
2.77041
2.76022
2.75083
2.74173
2.73222
2.72135
2.70782
2.71516
2.7034
2.69287
2.68346
2.67484
2.66655
2.65804
2.64872
2.63784
2.62441
2.61807
2.60884
2.60069
2.59343
2.58656
2.57948
2.57157
2.56233
2.55128
2.53784
2.51757
2.51105
2.50555
2.50072
2.49589
2.49025
2.48306
2.4739
2.46261
2.44913
2.41401
2.41044
2.40786
2.40578
2.40332
2.39941
2.39317
2.38421
2.37274
2.35925
2.308
2.3076
2.3082
2.30916
2.30938
2.30752
2.3025
2.29398
2.2825
2.26917
3.59152
3.5513
3.51311
3.47734
3.44415
3.41342
3.38474
3.3575
3.33104
3.30467
3.5722
3.5312
3.49203
3.45528
3.42132
3.39026
3.36182
3.33547
3.31044
3.28589
3.54899
3.50819
3.46898
3.43201
3.39784
3.36676
3.33868
3.31314
3.28934
3.26628
3.52036
3.48066
3.44238
3.40614
3.37255
3.34203
3.31464
3.29001
3.26733
3.24549
3.48542
3.44745
3.41093
3.3763
3.34414
3.31489
3.28869
3.26521
3.24366
3.22283
3.44385
3.40801
3.37376
3.34143
3.31142
3.2841
3.2596
3.23759
3.21727
3.19733
3.3957
3.36217
3.33049
3.30083
3.27344
3.24854
3.22616
3.20592
3.18695
3.16787
3.34118
3.31006
3.28104
3.25418
3.2296
3.20735
3.18733
3.16903
3.15151
3.13331
3.28056
3.2519
3.22551
3.20142
3.1796
3.16
3.14233
3.12602
3.10998
3.09267
3.21415
3.18798
3.16415
3.14265
3.1234
3.10624
3.09078
3.07632
3.0617
3.04528
4.50137
4.45298
4.40494
4.35726
4.30994
4.26299
4.2164
4.17016
4.12424
4.07864
4.0333
3.98819
3.94327
3.8985
3.85384
3.80927
3.76482
3.72056
3.67665
3.63335
4.49791
4.44906
4.40051
4.35228
4.30437
4.25678
4.20952
4.16256
4.1159
4.06952
4.02339
3.97747
3.93174
3.88616
3.84069
3.79531
3.75001
3.7048
3.65978
3.61512
4.49451
4.44494
4.39565
4.34663
4.2979
4.24945
4.20127
4.15336
4.1057
4.05826
4.01104
3.96399
3.91711
3.87035
3.82372
3.77717
3.73073
3.68439
3.63822
3.59235
4.49109
4.44055
4.39026
4.34022
4.29043
4.24088
4.19155
4.14244
4.09352
4.04476
3.99615
3.94766
3.89926
3.85096
3.80273
3.7546
3.70658
3.65872
3.61109
3.56382
4.48763
4.43584
4.3843
4.33298
4.28188
4.23098
4.18027
4.1297
4.07927
4.02892
3.97863
3.92838
3.87813
3.82789
3.77767
3.72751
3.67745
3.62758
3.57801
3.52891
4.48408
4.43078
4.37772
4.32487
4.27221
4.21971
4.16735
4.11508
4.06286
4.01065
3.9584
3.90607
3.85365
3.80111
3.7485
3.69587
3.64331
3.59095
3.53895
3.48749
4.48045
4.42536
4.37051
4.31586
4.26138
4.20703
4.15277
4.09853
4.04426
3.98991
3.9354
3.88069
3.82575
3.77057
3.71519
3.6597
3.60422
3.54892
3.494
3.43969
4.47672
4.41959
4.36268
4.30598
4.24942
4.19295
4.13652
4.08005
4.02346
3.96666
3.9096
3.85219
3.7944
3.73623
3.67773
3.61901
3.56023
3.5016
3.44336
3.38572
4.47291
4.41346
4.35425
4.29523
4.23633
4.1775
4.11864
4.05966
4.00046
3.94094
3.881
3.82056
3.7596
3.6981
3.63614
3.57385
3.51143
3.44914
3.3872
3.32583
4.46901
4.40699
4.34522
4.28365
4.22217
4.16072
4.09917
4.03741
3.97532
3.91276
3.84964
3.78586
3.72137
3.65621
3.59046
3.52429
3.45795
3.3917
3.32578
3.26031
4.46579
4.40237
4.33921
4.27623
4.21334
4.15042
4.08736
4.02402
3.96025
3.89591
3.83088
3.76506
3.6984
3.63092
3.56272
3.49397
3.42491
3.35582
3.2869
3.21822
4.46337
4.39982
4.33653
4.27341
4.21036
4.14727
4.08399
4.02039
3.95631
3.8916
3.82613
3.7598
3.69252
3.62432
3.55526
3.48549
3.41524
3.34474
3.27421
3.20374
4.46096
4.39727
4.33384
4.27057
4.20736
4.14408
4.08059
4.01674
3.95236
3.88732
3.82145
3.75464
3.68682
3.61799
3.54819
3.47758
3.40634
3.33473
3.26294
3.19111
4.45854
4.39471
4.33113
4.26771
4.20433
4.14086
4.07716
4.01307
3.94842
3.88305
3.8168
3.74957
3.68126
3.61186
3.54143
3.4701
3.39807
3.32557
3.25283
3.18
4.4561
4.39212
4.32839
4.26481
4.20126
4.13761
4.07371
4.00939
3.94448
3.8788
3.81221
3.74458
3.67583
3.60593
3.53494
3.46299
3.3903
3.31709
3.24363
3.17008
4.45364
4.38951
4.32562
4.26188
4.19817
4.13434
4.07025
4.00571
3.94055
3.8746
3.80769
3.7397
3.67054
3.60018
3.5287
3.45623
3.38297
3.3092
3.23518
3.16113
4.45115
4.38686
4.32282
4.25892
4.19505
4.13105
4.06677
4.00203
3.93665
3.87044
3.80325
3.73493
3.66541
3.59466
3.52275
3.44982
3.3761
3.30187
3.22742
3.153
4.44862
4.38417
4.31997
4.25592
4.19189
4.12774
4.06329
3.99837
3.93279
3.86636
3.79892
3.73033
3.6605
3.58941
3.51714
3.44383
3.36972
3.29513
3.22035
3.14565
4.44604
4.38143
4.31708
4.25289
4.18871
4.12441
4.05981
3.99473
3.92898
3.86236
3.79472
3.7259
3.65582
3.58446
3.5119
3.43829
3.3639
3.28902
3.214
3.13911
4.4434
4.37864
4.31415
4.24981
4.1855
4.12106
4.05633
3.99112
3.92522
3.85846
3.79065
3.72165
3.65139
3.57983
3.50706
3.43324
3.35864
3.28358
3.20838
3.13337
4.44072
4.3758
4.31117
4.2467
4.18226
4.1177
4.05285
3.98753
3.92152
3.85464
3.78671
3.7176
3.6472
3.57551
3.50261
3.42867
3.35395
3.27877
3.20349
3.1284
4.43798
4.37291
4.30814
4.24354
4.17899
4.11433
4.04938
3.98396
3.91786
3.8509
3.7829
3.7137
3.64323
3.57148
3.49851
3.42452
3.34975
3.27454
3.19923
3.12412
4.43518
4.36997
4.30507
4.24035
4.17569
4.11093
4.0459
3.98041
3.91425
3.84723
3.77918
3.70994
3.63944
3.56767
3.4947
3.42071
3.34597
3.27079
3.19551
3.12041
4.43233
4.36698
4.30195
4.23712
4.17236
4.10752
4.04241
3.97686
3.91065
3.8436
3.77552
3.70628
3.63578
3.56403
3.49109
3.41716
3.34249
3.26739
3.19219
3.11715
4.42942
4.36394
4.29879
4.23386
4.169
4.10408
4.03891
3.97331
3.90706
3.83999
3.7719
3.70266
3.63219
3.56048
3.48762
3.41378
3.33922
3.26425
3.18916
3.11421
4.42646
4.36086
4.29559
4.23055
4.16561
4.10061
4.03539
3.96973
3.90346
3.83637
3.76828
3.69906
3.62862
3.55697
3.4842
3.41048
3.33607
3.26125
3.18631
3.11148
4.42345
4.35772
4.29234
4.22721
4.16218
4.09711
4.03183
3.96613
3.89983
3.83272
3.76463
3.69543
3.62503
3.55346
3.48079
3.40721
3.33296
3.25832
3.18356
3.10888
4.42039
4.35454
4.28906
4.22382
4.15872
4.09358
4.02823
3.96249
3.89615
3.82902
3.76092
3.69173
3.62139
3.54989
3.47733
3.40391
3.32985
3.25541
3.18086
3.10636
4.41728
4.35131
4.28572
4.2204
4.1552
4.08999
4.02458
3.95878
3.8924
3.82524
3.75714
3.68796
3.61766
3.54624
3.47381
3.40055
3.3267
3.25249
3.17817
3.10389
4.41411
4.34804
4.28234
4.21692
4.15164
4.08635
4.02087
3.95501
3.88858
3.82138
3.75326
3.68409
3.61383
3.54249
3.4702
3.39713
3.3235
3.24955
3.17549
3.10144
3.14661
3.06867
2.98635
2.90001
2.8099
2.71615
2.61886
2.51817
2.41441
2.30814
3.13122
3.05368
2.97216
2.88702
2.79844
2.70653
2.61132
2.51292
2.41162
2.3079
3.11791
3.0407
2.95989
2.8758
2.78861
2.69837
2.60508
2.50882
2.40982
2.30851
3.10629
3.02932
2.94911
2.86597
2.78004
2.69132
2.59979
2.5055
2.40863
2.30958
3.096
3.0192
2.93951
2.85722
2.77242
2.68508
2.59515
2.50264
2.40773
2.31077
3.08676
3.01008
2.93086
2.84932
2.76553
2.67941
2.5909
2.49999
2.40685
2.3118
3.07842
3.00183
2.92301
2.84213
2.75921
2.67415
2.58686
2.49735
2.40579
2.31248
3.07091
2.99439
2.91589
2.83555
2.75334
2.66915
2.58291
2.49462
2.40445
2.3127
3.06422
2.9877
2.90943
2.82949
2.74784
2.66436
2.57897
2.49172
2.40276
2.31241
3.05833
2.98173
2.90357
2.8239
2.74265
2.65971
2.57502
2.48864
2.40074
2.31163
3.0532
2.97642
2.89825
2.81871
2.73772
2.65517
2.57104
2.48538
2.3984
2.31039
3.04872
2.97167
2.89339
2.81386
2.733
2.65073
2.56703
2.48198
2.3958
2.30876
3.0448
2.96739
2.88889
2.80928
2.72847
2.64638
2.56302
2.47848
2.39299
2.30682
3.04131
2.96348
2.8847
2.80493
2.7241
2.64212
2.55902
2.47493
2.39004
2.30464
3.03814
2.95984
2.88074
2.80077
2.71987
2.63796
2.55508
2.47136
2.38702
2.30231
3.03518
2.9564
2.87695
2.79677
2.71577
2.6339
2.55122
2.46784
2.38399
2.2999
3.03237
2.95311
2.87332
2.79291
2.71181
2.62998
2.54747
2.46441
2.38101
2.29749
3.02966
2.94993
2.86981
2.78919
2.708
2.62621
2.54386
2.46111
2.37813
2.29514
3.02702
2.94685
2.86642
2.78561
2.70435
2.6226
2.54043
2.45798
2.37541
2.2929
3.02446
2.94388
2.86316
2.78219
2.70087
2.61919
2.53721
2.45505
2.37287
2.29083
)
;

boundaryField
{
    down
    {
        type            symmetryPlane;
    }
    right
    {
        type            fixedValue;
        value           uniform 0;
    }
    up
    {
        type            symmetryPlane;
    }
    left
    {
        type            zeroGradient;
    }
    cylinder
    {
        type            symmetry;
    }
    defaultFaces
    {
        type            empty;
    }
}


// ************************************************************************* //
