/*--------------------------------*- C++ -*----------------------------------*\
| =========                 |                                                 |
| \\      /  F ield         | OpenFOAM: The Open Source CFD Toolbox           |
|  \\    /   O peration     | Version:  2112                                  |
|   \\  /    A nd           | Website:  www.openfoam.com                      |
|    \\/     M anipulation  |                                                 |
\*---------------------------------------------------------------------------*/
FoamFile
{
    version     2.0;
    format      ascii;
    arch        "LSB;label=32;scalar=64";
    class       volVectorField;
    location    "0";
    object      U_nn;
}
// * * * * * * * * * * * * * * * * * * * * * * * * * * * * * * * * * * * * * //

dimensions      [0 1 -1 0 0 0 0];

internalField   nonuniform List<vector> 
2000
(
(1.0816 -0.962612 0.00114573)
(1.09902 -0.838164 0.00481602)
(1.10868 -0.722216 0.0071584)
(1.11061 -0.619537 0.00800394)
(1.10768 -0.532068 0.00755177)
(1.10297 -0.459447 0.00623013)
(1.0983 -0.399907 0.00451215)
(1.09431 -0.351165 0.00277943)
(1.0909 -0.311019 0.00127016)
(1.08781 -0.277623 9.22481e-05)
(1.21803 -0.918668 0.000397083)
(1.226 -0.801167 0.00340724)
(1.22327 -0.69171 0.00530402)
(1.21185 -0.594834 0.00599075)
(1.19618 -0.512201 0.00562696)
(1.18021 -0.443358 0.00454208)
(1.16604 -0.386657 0.00311099)
(1.15422 -0.340025 0.00164848)
(1.14442 -0.301472 0.000360189)
(1.13611 -0.269307 -0.000654167)
(1.35236 -0.847816 -0.00114088)
(1.34951 -0.738593 0.00131514)
(1.33339 -0.637893 0.00291584)
(1.30805 -0.549541 0.00359747)
(1.27945 -0.474522 0.00345163)
(1.25231 -0.412025 0.00269927)
(1.22891 -0.360382 0.001621)
(1.20961 -0.317705 0.000473523)
(1.19381 -0.282239 -0.000562405)
(1.18067 -0.252509 -0.00139046)
(1.47928 -0.755961 -0.00313621)
(1.46446 -0.656194 -0.00110437)
(1.43438 -0.566085 0.000352013)
(1.39511 -0.488379 0.00116508)
(1.35398 -0.423099 0.00133785)
(1.31627 -0.368885 0.000980765)
(1.28432 -0.323957 0.000288845)
(1.25824 -0.28659 -0.00052847)
(1.2371 -0.255294 -0.00130679)
(1.21975 -0.228851 -0.00194796)
(1.5939 -0.649796 -0.00523119)
(1.56646 -0.560376 -0.00348225)
(1.52255 -0.482102 -0.00203555)
(1.47006 -0.416435 -0.000991783)
(1.41739 -0.362277 -0.00044408)
(1.37021 -0.317608 -0.000384466)
(1.33077 -0.280471 -0.000690549)
(1.29886 -0.249289 -0.001189)
(1.27322 -0.222848 -0.00172452)
(1.2524 -0.200221 -0.00219316)
(1.69221 -0.535552 -0.00711076)
(1.65223 -0.45698 -0.00550771)
(1.59544 -0.391136 -0.00396956)
(1.53117 -0.338152 -0.00264565)
(1.46856 -0.295781 -0.00171736)
(1.41341 -0.261296 -0.00126119)
(1.36778 -0.232522 -0.00121158)
(1.33115 -0.208001 -0.00142172)
(1.30194 -0.186796 -0.00174095)
(1.2784 -0.168278 -0.00205811)
(1.77135 -0.418232 -0.00854005)
(1.71972 -0.350593 -0.00696487)
(1.65177 -0.297165 -0.00527763)
(1.57783 -0.256836 -0.00367737)
(1.50733 -0.226292 -0.00241142)
(1.446 -0.202115 -0.00161506)
(1.39564 -0.181883 -0.0012628)
(1.35546 -0.164218 -0.00122754)
(1.32359 -0.148431 -0.0013623)
(1.29806 -0.134181 -0.00155012)
(1.82957 -0.30139 -0.00937055)
(1.76793 -0.244407 -0.00773586)
(1.69122 -0.20288 -0.00588819)
(1.61017 -0.174637 -0.0040639)
(1.53415 -0.155459 -0.00254398)
(1.4686 -0.141314 -0.00149261)
(1.41503 -0.129514 -0.000908146)
(1.37243 -0.118714 -0.000679083)
(1.33877 -0.108419 -0.000664335)
(1.3119 -0.0985462 -0.000745135)
(1.86601 -0.187311 -0.00952704)
(1.79663 -0.140437 -0.00778313)
(1.71398 -0.109939 -0.00580623)
(1.6287 -0.0928168 -0.00384834)
(1.54967 -0.0841705 -0.00218801)
(1.4819 -0.079475 -0.000988253)
(1.42664 -0.0757854 -0.000256248)
(1.38273 -0.0717279 0.000106299)
(1.34806 -0.0669414 0.00023054)
(1.32043 -0.0615449 0.000231352)
(1.8805 -0.0773592 -0.00898795)
(1.80603 -0.0398876 -0.00712472)
(1.72049 -0.0193417 -0.00508374)
(1.63392 -0.0121297 -0.00310714)
(1.55441 -0.0129251 -0.0014375)
(1.48641 -0.0168688 -0.000210069)
(1.43092 -0.020794 0.0005727)
(1.38676 -0.0232521 0.000998093)
(1.35183 -0.023941 0.00118319)
(1.32397 -0.0231197 0.0012329)
(0.196041 -0.296402 -0.0296506)
(0.270518 -0.167916 -0.0178484)
(0.357545 -0.0918908 -0.00751958)
(0.443286 -0.0579876 -0.00062468)
(0.518813 -0.0525526 0.00255551)
(0.581183 -0.060888 0.00309053)
(0.631275 -0.0717497 0.00232812)
(0.671393 -0.0794906 0.00118474)
(0.704025 -0.0827644 7.07374e-05)
(0.731375 -0.0822089 -0.000904191)
(0.243988 -0.376239 -0.0256118)
(0.315323 -0.247049 -0.0145474)
(0.397708 -0.165474 -0.00511708)
(0.478576 -0.122693 0.000964465)
(0.550033 -0.106946 0.00355446)
(0.609466 -0.105475 0.00371234)
(0.657573 -0.108273 0.00272182)
(0.696335 -0.109969 0.00145314)
(0.727965 -0.1089 0.000292436)
(0.754471 -0.105228 -0.000669031)
(0.297727 -0.46572 -0.0215858)
(0.364888 -0.33446 -0.0113256)
(0.441745 -0.245707 -0.00278083)
(0.517045 -0.192446 0.00255665)
(0.583891 -0.165037 0.00463247)
(0.639958 -0.152737 0.00446052)
(0.685745 -0.146735 0.00325313)
(0.722885 -0.141867 0.00184528)
(0.753284 -0.136099 0.000614465)
(0.778738 -0.12909 -0.000354556)
(0.358807 -0.561723 -0.0175443)
(0.421062 -0.427858 -0.00812581)
(0.491658 -0.331184 -0.000452768)
(0.560659 -0.266656 0.00418707)
(0.622166 -0.226833 0.00579764)
(0.674185 -0.202986 0.0053267)
(0.717057 -0.187502 0.0039079)
(0.752079 -0.175455 0.00234417)
(0.78083 -0.164472 0.00101415)
(0.804868 -0.153729 6.97355e-06)
(0.428843 -0.660124 -0.0135123)
(0.485715 -0.523878 -0.00495234)
(0.549444 -0.419394 0.00186162)
(0.611391 -0.343647 0.00583292)
(0.666689 -0.291351 0.00700924)
(0.713764 -0.255717 0.00626326)
(0.752888 -0.23033 0.00464277)
(0.785071 -0.210586 0.00291452)
(0.811569 -0.19387 0.00146064)
(0.833674 -0.17893 0.000382551)
(0.509341 -0.755607 -0.0095871)
(0.560542 -0.617821 -0.0018875)
(0.616887 -0.506406 0.00408104)
(0.671017 -0.42031 0.00740453)
(0.719142 -0.356261 0.00817007)
(0.760222 -0.309259 0.00717472)
(0.794584 -0.274048 0.00537483)
(0.823025 -0.246432 0.00349166)
(0.846497 -0.223672 0.0019059)
(0.86602 -0.204185 0.000733752)
(0.60147 -0.841742 -0.00594386)
(0.646806 -0.703678 0.000903511)
(0.695277 -0.586849 0.00604555)
(0.740806 -0.49204 0.00874441)
(0.780745 -0.417765 0.00912661)
(0.814706 -0.360589 0.00791744)
(0.843191 -0.316324 0.00597858)
(0.866873 -0.281227 0.003975)
(0.886445 -0.252549 0.00227573)
(0.902649 -0.228482 0.00100842)
(0.705777 -0.911461 -0.00282074)
(0.745022 -0.774587 0.00318903)
(0.785067 -0.654343 0.00753433)
(0.821161 -0.553112 0.00964569)
(0.85188 -0.470887 0.00968764)
(0.877597 -0.40552 0.00831737)
(0.899092 -0.353732 0.00630069)
(0.916991 -0.312234 0.00423696)
(0.931772 -0.278352 0.00247191)
(0.943914 -0.25015 0.00113725)
(0.821869 -0.95796 -0.000476212)
(0.854631 -0.823787 0.0047166)
(0.88554 -0.702447 0.00831246)
(0.911276 -0.597583 0.00989795)
(0.93174 -0.510293 0.00966808)
(0.948154 -0.439382 0.00821167)
(0.961648 -0.382287 0.00619802)
(0.972846 -0.336123 0.00415484)
(0.982045 -0.298345 0.00239518)
(0.989477 -0.266978 0.00104686)
(0.948134 -0.97591 0.000877495)
(0.973736 -0.845895 0.00528429)
(0.99458 -0.725965 0.00820262)
(1.00894 -0.620581 0.00935547)
(1.01815 -0.531502 0.00895218)
(1.02434 -0.458129 0.00750692)
(1.02902 -0.398401 0.00559148)
(1.03282 -0.349767 0.0036597)
(1.03585 -0.309844 0.00198706)
(1.03812 -0.276686 0.000692089)
(0.754808 -0.0786535 -0.00174309)
(0.775844 -0.0730782 -0.00247592)
(0.795464 -0.0664347 -0.0031025)
(0.814083 -0.0591604 -0.00361425)
(0.831818 -0.0515894 -0.00399343)
(0.848559 -0.0440105 -0.00422017)
(0.86406 -0.0367023 -0.00427843)
(0.878032 -0.0299457 -0.00416029)
(0.890247 -0.0240163 -0.00386847)
(0.900611 -0.0191584 -0.0034169)
(0.909198 -0.0155492 -0.00282955)
(0.916235 -0.0132651 -0.00213829)
(0.92205 -0.0122606 -0.00138002)
(0.927002 -0.012367 -0.000593775)
(0.931428 -0.01331 0.000182211)
(0.935601 -0.0147423 0.000913035)
(0.939709 -0.0162823 0.00156922)
(0.943861 -0.0175506 0.00212818)
(0.948098 -0.0182004 0.00257496)
(0.952407 -0.0179368 0.00290243)
(0.776485 -0.09881 -0.0014637)
(0.795595 -0.0904927 -0.0021454)
(0.813425 -0.0816096 -0.00272282)
(0.830357 -0.0724089 -0.00319737)
(0.846501 -0.0631206 -0.00355543)
(0.861761 -0.0539844 -0.00377738)
(0.87591 -0.0452618 -0.00384497)
(0.888672 -0.0372335 -0.00374689)
(0.899824 -0.0301804 -0.00348229)
(0.909267 -0.0243517 -0.0030622)
(0.917064 -0.0199237 -0.00250885)
(0.923427 -0.016964 -0.00185342)
(0.928668 -0.015408 -0.001133)
(0.933133 -0.0150596 -0.0003871)
(0.937138 -0.0156114 0.000345622)
(0.940938 -0.0166818 0.0010303)
(0.944702 -0.0178574 0.00163806)
(0.948524 -0.0187333 0.00214746)
(0.952428 -0.0189442 0.00254513)
(0.956397 -0.0181842 0.00282581)
(0.799048 -0.119681 -0.00111952)
(0.815945 -0.108588 -0.00175661)
(0.831787 -0.0975079 -0.00228595)
(0.846902 -0.0864512 -0.00272339)
(0.86138 -0.075505 -0.00306229)
(0.875126 -0.0648346 -0.00328447)
(0.887921 -0.0546728 -0.00336945)
(0.899497 -0.0452999 -0.00330173)
(0.909624 -0.0370113 -0.00307572)
(0.918188 -0.0300753 -0.00269831)
(0.925229 -0.0246849 -0.00218892)
(0.93094 -0.0209141 -0.00157745)
(0.935619 -0.0186923 -0.000900937)
(0.939596 -0.0178023 -0.000199574)
(0.943177 -0.0179046 0.000487211)
(0.946599 -0.0185789 0.00112408)
(0.950019 -0.019373 0.00168228)
(0.953513 -0.0198474 0.00214111)
(0.957095 -0.0196094 0.00248853)
(0.960736 -0.0183347 0.002721)
(0.823016 -0.141056 -0.000750689)
(0.837246 -0.127069 -0.00135159)
(0.85079 -0.113801 -0.00183153)
(0.863887 -0.100967 -0.00222631)
(0.876575 -0.0884595 -0.00254072)
(0.888737 -0.0763287 -0.00276063)
(0.900146 -0.0647548 -0.00286438)
(0.91053 -0.0540092 -0.00283203)
(0.919642 -0.0444067 -0.0026522)
(0.927343 -0.0362491 -0.00232626)
(0.933643 -0.0297647 -0.00186946)
(0.938712 -0.0250541 -0.00130944)
(0.942827 -0.0220558 -0.000682708)
(0.946309 -0.0205416 -3.00689e-05)
(0.949455 -0.020142 0.000607974)
(0.952492 -0.0203943 0.00119518)
(0.955564 -0.020799 0.00170244)
(0.958733 -0.0208717 0.00210943)
(0.962002 -0.0201824 0.00240518)
(0.965331 -0.0183795 0.00258787)
(0.84901 -0.162654 -0.000394986)
(0.859918 -0.1456 -0.000971463)
(0.870708 -0.130113 -0.00140112)
(0.881484 -0.115573 -0.00174417)
(0.892192 -0.101629 -0.00202229)
(0.902656 -0.0881654 -0.0022297)
(0.912615 -0.075271 -0.00234599)
(0.921773 -0.063187 -0.00234753)
(0.929858 -0.0522438 -0.00221658)
(0.936694 -0.042787 -0.00194759)
(0.942254 -0.0351001 -0.00155007)
(0.946676 -0.0293327 -0.00104801)
(0.950218 -0.0254534 -0.000476509)
(0.953192 -0.0232365 0.000123297)
(0.955888 -0.022288 0.000709711)
(0.95853 -0.0220996 0.00124522)
(0.961249 -0.0221158 0.00169993)
(0.964096 -0.0217955 0.00205354)
(0.967062 -0.02066 0.00229599)
(0.970093 -0.0183202 0.00242715)
(0.877724 -0.184067 -8.66135e-05)
(0.884456 -0.163821 -0.000651761)
(0.891876 -0.146063 -0.00103324)
(0.899902 -0.12987 -0.00131541)
(0.908348 -0.114622 -0.00154151)
(0.91694 -0.0999949 -0.00171956)
(0.925347 -0.0859359 -0.00183451)
(0.93322 -0.0726197 -0.00186119)
(0.940245 -0.060375 -0.00177584)
(0.946199 -0.0495932 -0.00156501)
(0.951009 -0.0406294 -0.00123074)
(0.954774 -0.0337075 -0.000791656)
(0.957728 -0.0288516 -0.000280176)
(0.960175 -0.0258581 0.000262906)
(0.962405 -0.0243177 0.000794783)
(0.964637 -0.0236759 0.00127641)
(0.966997 -0.0233122 0.00167676)
(0.969526 -0.0226165 0.00197522)
(0.972199 -0.0210472 0.0021625)
(0.97495 -0.0181669 0.00224022)
(0.90981 -0.204624 0.00014007)
(0.911381 -0.181294 -0.000420537)
(0.914678 -0.161281 -0.000758534)
(0.919397 -0.143483 -0.000973939)
(0.925194 -0.127056 -0.00113222)
(0.931663 -0.111451 -0.00126015)
(0.938364 -0.0964319 -0.00135342)
(0.944863 -0.082059 -0.00138923)
(0.950776 -0.0686253 -0.00133957)
(0.95582 -0.0565561 -0.00118289)
(0.959863 -0.0462871 -0.000912321)
(0.962954 -0.0381408 -0.000539173)
(0.965303 -0.032226 -9.14708e-05)
(0.967203 -0.0283873 0.00039139)
(0.968947 -0.0262153 0.000865883)
(0.970755 -0.0251119 0.00129135)
(0.97275 -0.024384 0.00163533)
(0.974963 -0.0233382 0.00187665)
(0.977355 -0.0213551 0.00200665)
(0.979843 -0.0179354 0.0020289)
(0.945671 -0.223232 0.000244973)
(0.941118 -0.197408 -0.000300453)
(0.939489 -0.175369 -0.000597618)
(0.940257 -0.156074 -0.000744686)
(0.942918 -0.138589 -0.000823106)
(0.946925 -0.122187 -0.000880167)
(0.951704 -0.106435 -0.00092765)
(0.9567 -0.0912333 -0.00095047)
(0.96143 -0.0767933 -0.000919916)
(0.965523 -0.0635441 -0.000807572)
(0.968775 -0.0519979 -0.000596874)
(0.971178 -0.0425937 -0.000289927)
(0.972904 -0.0355567 9.16664e-05)
(0.974236 -0.0308114 0.000511417)
(0.975473 -0.027971 0.000925837)
(0.976842 -0.0264011 0.0012928)
(0.978465 -0.0253303 0.00157823)
(0.980365 -0.0239671 0.00176019)
(0.982487 -0.0215972 0.00183062)
(0.984732 -0.017644 0.00179521)
(0.985215 -0.238347 0.000183616)
(0.973818 -0.211279 -0.000312169)
(0.966563 -0.187826 -0.00056214)
(0.962742 -0.167315 -0.000641316)
(0.961728 -0.148934 -0.000633669)
(0.962858 -0.131906 -0.000603208)
(0.965429 -0.115643 -0.000580808)
(0.968745 -0.0998679 -0.000564843)
(0.97219 -0.0846593 -0.000531131)
(0.97528 -0.0704051 -0.000447408)
(0.977715 -0.0576719 -0.000287903)
(0.979413 -0.0470214 -4.41248e-05)
(0.9805 -0.0388243 0.000270906)
(0.981246 -0.0331214 0.000625528)
(0.981956 -0.0295785 0.000977466)
(0.98287 -0.0275393 0.00128356)
(0.984114 -0.026151 0.00150811)
(0.985704 -0.0245097 0.0016283)
(0.98757 -0.0217866 0.00163665)
(0.989593 -0.0173107 0.00154129)
(1.02766 -0.248213 -7.71192e-05)
(1.0092 -0.221781 -0.00047283)
(0.995899 -0.198002 -0.000657174)
(0.986992 -0.176836 -0.000666871)
(0.981797 -0.157841 -0.000572203)
(0.979604 -0.140375 -0.000444371)
(0.979622 -0.123807 -0.000332008)
(0.981027 -0.10771 -0.000251214)
(0.983051 -0.0919997 -0.000188417)
(0.985067 -0.0769709 -0.000112391)
(0.986652 -0.0632024 9.60507e-06)
(0.98763 -0.0513685 0.000197029)
(0.988067 -0.0420052 0.000447375)
(0.988213 -0.0353083 0.000736016)
(0.988379 -0.0310329 0.00102349)
(0.988823 -0.0285227 0.0012664)
(0.989681 -0.0268452 0.00142762)
(0.990965 -0.0249705 0.00148341)
(0.992589 -0.0219343 0.00142699)
(0.994411 -0.0169509 0.0012693)
(1.06189 -0.239502 -0.000720202)
(1.03958 -0.217258 -0.000879757)
(1.0225 -0.196129 -0.000888877)
(1.01008 -0.176585 -0.000764411)
(1.00173 -0.158604 -0.000557408)
(0.996805 -0.141834 -0.000329182)
(0.994527 -0.125792 -0.000128822)
(0.994038 -0.110087 2.08817e-05)
(0.994509 -0.0946007 0.000126107)
(0.995243 -0.0795856 0.000214131)
(0.995758 -0.0656164 0.000318737)
(0.995834 -0.0534172 0.000464567)
(0.995505 -0.0436126 0.00065625)
(0.994998 -0.0364924 0.000876026)
(0.994612 -0.0318764 0.00108975)
(0.994593 -0.0291236 0.0012576)
(0.995068 -0.0272676 0.00134483)
(0.996035 -0.0252122 0.00132965)
(0.997397 -0.0219174 0.00120744)
(0.998992 -0.0165313 0.000991955)
(1.08227 -0.217769 -0.00138219)
(1.05991 -0.200815 -0.00128159)
(1.04207 -0.183817 -0.00108037)
(1.02848 -0.167372 -0.000797983)
(1.01875 -0.151666 -0.000475754)
(1.01235 -0.136568 -0.000162332)
(1.00858 -0.121788 0.00010248)
(1.00663 -0.107076 0.000299666)
(1.00572 -0.092404 0.000434736)
(1.00519 -0.0780651 0.000532327)
(1.00458 -0.0646514 0.000624044)
(1.0037 -0.0528921 0.000734416)
(1.00258 -0.0434152 0.000870592)
(1.00145 -0.0365161 0.00101961)
(1.00056 -0.032023 0.00115343)
(1.00014 -0.0293037 0.00123853)
(1.00027 -0.0273988 0.00124578)
(1.00093 -0.0252147 0.00115783)
(1.00203 -0.0217104 0.000973426)
(1.00337 -0.0160317 0.000708763)
(1.09741 -0.196704 -0.00179822)
(1.07585 -0.1841 -0.00151967)
(1.05806 -0.170704 -0.00116973)
(1.04401 -0.157111 -0.000772157)
(1.03349 -0.143601 -0.000363813)
(1.02607 -0.130184 1.41624e-05)
(1.02115 -0.116718 0.000327894)
(1.01802 -0.103073 0.000560601)
(1.01596 -0.0893033 0.00071661)
(1.01434 -0.0757434 0.00081771)
(1.01277 -0.0629984 0.000893043)
(1.01106 -0.0517958 0.000966628)
(1.00928 -0.0427588 0.00104771)
(1.00761 -0.0361813 0.00112773)
(1.00629 -0.0318959 0.00118444)
(1.00551 -0.0292794 0.00119033)
(1.00534 -0.0273814 0.0011216)
(1.00574 -0.0251148 0.000965152)
(1.00659 -0.021441 0.000722847)
(1.00772 -0.0155071 0.000413127)
(1.1084 -0.17689 -0.0020039)
(1.08813 -0.167751 -0.00161276)
(1.07094 -0.157375 -0.00116549)
(1.05695 -0.14629 -0.000690291)
(1.04608 -0.134797 -0.000222654)
(1.03802 -0.122986 0.000200204)
(1.03228 -0.11082 0.000547755)
(1.02822 -0.0982676 0.000804149)
(1.02522 -0.08545 0.000972112)
(1.02271 -0.0727401 0.00107048)
(1.02033 -0.0607503 0.00112578)
(1.01794 -0.0501993 0.00116125)
(1.01559 -0.0416966 0.00118784)
(1.01347 -0.0355275 0.00120097)
(1.01179 -0.0315243 0.00118377)
(1.01071 -0.0290717 0.00111437)
(1.01027 -0.0272301 0.000973966)
(1.01044 -0.0249218 0.000753445)
(1.01109 -0.0211146 0.000457572)
(1.01203 -0.0149592 0.000106849)
(1.11621 -0.158573 -0.0020423)
(1.09747 -0.152137 -0.00158672)
(1.08121 -0.144226 -0.00108192)
(1.06762 -0.135277 -0.000559767)
(1.05673 -0.125572 -5.58609e-05)
(1.04833 -0.115241 0.000394311)
(1.04203 -0.104316 0.000761807)
(1.03728 -0.0928402 0.00103078)
(1.03354 -0.0809933 0.0012021)
(1.0303 -0.0691767 0.00129165)
(1.02727 -0.0580043 0.00132337)
(1.02432 -0.0481782 0.0013195)
(1.02152 -0.040286 0.00129236)
(1.01903 -0.0345968 0.00124095)
(1.01706 -0.0309384 0.00115328)
(1.01573 -0.0287014 0.00101268)
(1.01508 -0.0269583 0.000805012)
(1.01506 -0.0246437 0.000524837)
(1.01553 -0.0207343 0.000179633)
(1.0163 -0.0143875 -0.000208208)
(1.12165 -0.141798 -0.00195467)
(1.1045 -0.137441 -0.00146829)
(1.08932 -0.131504 -0.000935185)
(1.07635 -0.124331 -0.000389794)
(1.06568 -0.116171 0.000131638)
(1.05717 -0.107166 0.000594191)
(1.05051 -0.0973949 0.000969452)
(1.04527 -0.0869556 0.00124103)
(1.04096 -0.0760733 0.00140782)
(1.03716 -0.0651705 0.00148293)
(1.03362 -0.0548559 0.00148776)
(1.03023 -0.0458078 0.00144351)
(1.02708 -0.0385842 0.00136358)
(1.02431 -0.0334314 0.00125008)
(1.02211 -0.0301678 0.00109548)
(1.02059 -0.0281884 0.000887811)
(1.01976 -0.0265784 0.000617221)
(1.01958 -0.0242866 0.000281683)
(1.0199 -0.0203017 -0.000108817)
(1.02055 -0.0137899 -0.000530138)
(1.12533 -0.126504 -0.00177624)
(1.10973 -0.123727 -0.0012816)
(1.09568 -0.119347 -0.000740774)
(1.08345 -0.113627 -0.000189768)
(1.07314 -0.106776 0.000334536)
(1.06468 -0.0989374 0.000797262)
(1.05785 -0.0902178 0.00116998)
(1.05227 -0.0807578 0.0014355)
(1.04755 -0.0708166 0.00159084)
(1.04333 -0.0608301 0.00164649)
(1.0394 -0.0513953 0.00162153)
(1.03569 -0.0431601 0.0015361)
(1.03228 -0.0366464 0.00140445)
(1.02931 -0.0320713 0.00123141)
(1.02694 -0.0292403 0.00101337)
(1.02527 -0.0275508 0.000742663)
(1.02432 -0.0261008 0.000413324)
(1.02401 -0.0238553 2.64769e-05)
(1.02422 -0.019817 -0.000405557)
(1.02476 -0.0131629 -0.000857021)
(1.12768 -0.112581 -0.0015353)
(1.11355 -0.110991 -0.0010469)
(1.10063 -0.107823 -0.000512303)
(1.08917 -0.103274 3.16842e-05)
(1.07931 -0.0975169 0.000547781)
(1.07103 -0.0906884 0.00100102)
(1.06414 -0.0829154 0.00136276)
(1.05836 -0.074369 0.00161496)
(1.05336 -0.065334 0.00175292)
(1.04885 -0.0562527 0.00178484)
(1.04465 -0.0477045 0.00172769)
(1.04072 -0.0403013 0.00160057)
(1.03713 -0.0345231 0.0014184)
(1.03403 -0.0305535 0.00118834)
(1.03156 -0.0281811 0.000910266)
(1.02979 -0.0268043 0.000580354)
(1.02874 -0.0255342 0.000196182)
(1.02835 -0.0233529 -0.000238218)
(1.02847 -0.0192793 -0.000708352)
(1.02893 -0.0125024 -0.00118696)
(1.12903 -0.0999064 -0.00125394)
(1.11627 -0.0991912 -0.000780496)
(1.10442 -0.0969533 -0.000261176)
(1.09375 -0.0933368 0.000267076)
(1.08439 -0.0884821 0.000766869)
(1.07635 -0.0825201 0.00120321)
(1.06951 -0.0755913 0.00154725)
(1.06364 -0.0678903 0.00178022)
(1.05847 -0.0597198 0.00189595)
(1.05377 -0.0515228 0.00190066)
(1.04939 -0.0438559 0.00180943)
(1.04533 -0.0372903 0.00164043)
(1.04165 -0.0322598 0.00140905)
(1.03848 -0.0289108 0.00112447)
(1.03596 -0.0270123 0.000789609)
(1.03414 -0.0259625 0.000404079)
(1.03304 -0.0248854 -3.13132e-05)
(1.03259 -0.0227816 -0.000509851)
(1.03266 -0.0186869 -0.001015)
(1.03306 -0.011804 -0.00151809)
(1.12962 -0.0883645 -0.000949309)
(1.1181 -0.0882745 -0.000495448)
(1.10726 -0.0867351 3.21658e-06)
(1.09735 -0.0838487 0.000510063)
(1.08851 -0.0797305 0.000987897)
(1.08077 -0.0745059 0.00140187)
(1.07405 -0.068326 0.00172307)
(1.06817 -0.0614031 0.00193218)
(1.06292 -0.0540526 0.00202184)
(1.05812 -0.0467122 0.00199662)
(1.05367 -0.0399118 0.00186999)
(1.04955 -0.0341781 0.00165921)
(1.04584 -0.0298958 0.00138006)
(1.04267 -0.0271714 0.0010434)
(1.04014 -0.0257526 0.000654822)
(1.03832 -0.0250366 0.000216992)
(1.0372 -0.02416 -0.000266335)
(1.03673 -0.0221424 -0.000785945)
(1.03678 -0.0180379 -0.00132339)
(1.03714 -0.0110633 -0.00184865)
(1.12961 -0.0778483 -0.000634842)
(1.11921 -0.0781815 -0.000202229)
(1.10931 -0.0771498 0.000273125)
(1.10013 -0.0748236 0.000755262)
(1.09181 -0.0712993 0.00120747)
(1.0844 -0.0666983 0.00159526)
(1.07785 -0.0611805 0.00188987)
(1.07203 -0.0549722 0.00207166)
(1.06678 -0.048396 0.0021324)
(1.06196 -0.0418804 0.0020753)
(1.0575 -0.0359243 0.00191246)
(1.0534 -0.0310077 0.00166034)
(1.04973 -0.0274643 0.00133497)
(1.0466 -0.025359 0.000948613)
(1.04412 -0.0244178 0.00050919)
(1.04233 -0.0240355 2.21064e-05)
(1.04124 -0.023362 -0.000506191)
(1.04077 -0.0214359 -0.00106415)
(1.04082 -0.0173301 -0.00163151)
(1.04116 -0.010276 -0.00217697)
(1.12913 -0.0682622 -0.000321149)
(1.11974 -0.0688534 9.06608e-05)
(1.1107 -0.0681711 0.000542074)
(1.1022 -0.0662623 0.00099804)
(1.09439 -0.0632098 0.00142257)
(1.08732 -0.0591331 0.00178178)
(1.08098 -0.0542002 0.00204727)
(1.07528 -0.0486476 0.00219936)
(1.07009 -0.042801 0.00222922)
(1.06532 -0.0370753 0.00213902)
(1.06092 -0.0319361 0.0019397)
(1.05689 -0.0278145 0.00164698)
(1.05331 -0.0249924 0.00127704)
(1.05028 -0.0234933 0.000843328)
(1.04789 -0.0230202 0.000355767)
(1.04617 -0.0229663 -0.000177778)
(1.04513 -0.0224942 -0.000748382)
(1.04471 -0.0206618 -0.0013423)
(1.04477 -0.0165611 -0.00193753)
(1.04513 -0.00943831 -0.00250152)
(1.1283 -0.0595188 -1.65944e-05)
(1.1198 -0.0602325 0.000376291)
(1.11153 -0.0597681 0.000804605)
(1.10366 -0.0581566 0.00123435)
(1.09633 -0.0554719 0.00163048)
(1.08962 -0.051834 0.00195991)
(1.08352 -0.0474177 0.00219484)
(1.07797 -0.0424671 0.00231582)
(1.07291 -0.037307 0.00231369)
(1.06824 -0.0323352 0.00218984)
(1.06395 -0.0279813 0.00195424)
(1.06005 -0.024627 0.00162197)
(1.05661 -0.0225023 0.00120923)
(1.05372 -0.0215895 0.00073046)
(1.05145 -0.0215698 0.000197318)
(1.04984 -0.0218342 -0.000380122)
(1.04889 -0.0215583 -0.000990638)
(1.04853 -0.0198195 -0.0016184)
(1.04864 -0.0157288 -0.00223973)
(1.04903 -0.00854702 -0.00282089)
(1.1272 -0.051537 0.000272375)
(1.11948 -0.0522624 0.000649085)
(1.11189 -0.0519072 0.00105614)
(1.1046 -0.0504923 0.00146068)
(1.09773 -0.0480875 0.00182871)
(1.09137 -0.044815 0.00212815)
(1.08552 -0.0408557 0.00233204)
(1.08017 -0.0364587 0.00242135)
(1.07527 -0.0319441 0.00238688)
(1.07076 -0.0276894 0.00222945)
(1.06663 -0.0240866 0.00195825)
(1.0629 -0.0214674 0.00158775)
(1.05964 -0.0200109 0.00113412)
(1.05693 -0.0196597 0.000612567)
(1.05481 -0.0200737 3.62808e-05)
(1.05334 -0.0206428 -0.000582673)
(1.0525 -0.0205553 -0.00123093)
(1.05223 -0.0189082 -0.00189069)
(1.05242 -0.0148312 -0.00253662)
(1.05286 -0.00759929 -0.00313382)
(1.12591 -0.0442399 0.000541044)
(1.11886 -0.0448875 0.000904718)
(1.11187 -0.0445522 0.00129295)
(1.1051 -0.0432505 0.00167399)
(1.09865 -0.041052 0.00201501)
(1.09263 -0.0380825 0.00228509)
(1.08706 -0.0345288 0.00245824)
(1.08193 -0.030642 0.00251609)
(1.07722 -0.0267344 0.00244961)
(1.0729 -0.0231601 0.00225924)
(1.06897 -0.0202721 0.00195354)
(1.06545 -0.0183525 0.00154638)
(1.06241 -0.0175312 0.00105388)
(1.0599 -0.0177127 0.000491836)
(1.05798 -0.0185374 -0.000125243)
(1.05667 -0.0193945 -0.000783476)
(1.05597 -0.0194855 -0.0014675)
(1.05582 -0.0179267 -0.00215759)
(1.0561 -0.0138661 -0.00282684)
(1.05661 -0.00659276 -0.00343918)
(1.12449 -0.0375539 0.000786302)
(1.118 -0.038053 0.00114007)
(1.11153 -0.0376656 0.00151214)
(1.10522 -0.036409 0.00187181)
(1.09917 -0.0343559 0.00218747)
(1.09347 -0.0316375 0.0024294)
(1.08817 -0.0284454 0.00257278)
(1.08328 -0.0250303 0.00260003)
(1.07879 -0.0216935 0.00250245)
(1.0747 -0.0187633 0.00228028)
(1.071 -0.0165524 0.00194153)
(1.06773 -0.0152946 0.00149957)
(1.06493 -0.0150724 0.00097032)
(1.06265 -0.0157547 0.000370088)
(1.06094 -0.0169644 -0.000285485)
(1.05983 -0.0180906 -0.000980865)
(1.05929 -0.0183486 -0.0016988)
(1.05929 -0.0168736 -0.00241774)
(1.05968 -0.0128319 -0.00310921)
(1.06027 -0.00552545 -0.00373598)
(1.12299 -0.0314086 0.00100651)
(1.11697 -0.0317046 0.00135321)
(1.11094 -0.0312085 0.00171171)
(1.10502 -0.0299426 0.0020523)
(1.09933 -0.027986 0.00234453)
(1.09394 -0.0254762 0.00255999)
(1.08892 -0.0226088 0.00267504)
(1.08428 -0.0196316 0.00267307)
(1.08004 -0.0168319 0.00254578)
(1.07619 -0.01451 0.00229336)
(1.07275 -0.012938 0.00192336)
(1.06974 -0.0123023 0.00144862)
(1.06721 -0.0126411 0.000884883)
(1.06519 -0.0137901 0.0002488)
(1.06372 -0.0153566 -0.000442992)
(1.06282 -0.0167315 -0.00117345)
(1.06247 -0.0171437 -0.00192355)
(1.06263 -0.0157475 -0.00266997)
(1.06315 -0.0117267 -0.00338269)
(1.06384 -0.0043956 -0.00402335)
(1.12144 -0.0257369 0.00120137)
(1.1158 -0.0257894 0.0015433)
(1.11014 -0.0251417 0.00189055)
(1.10457 -0.0238249 0.00221427)
(1.09919 -0.0219266 0.00248513)
(1.0941 -0.0195917 0.00267601)
(1.08935 -0.0170185 0.00276455)
(1.08497 -0.0144497 0.00273509)
(1.08099 -0.0121556 0.00257987)
(1.07741 -0.010407 0.00229907)
(1.07424 -0.00943525 0.00189985)
(1.07152 -0.00938123 0.00139456)
(1.06927 -0.0102412 0.000798683)
(1.06752 -0.0118212 0.000129132)
(1.06631 -0.0137152 -0.000596603)
(1.06564 -0.015317 -0.00136011)
(1.0655 -0.0158698 -0.00214067)
(1.06584 -0.0145466 -0.00291327)
(1.06651 -0.0105486 -0.0036464)
(1.06732 -0.0032016 -0.00430052)
(1.11987 -0.0204758 0.00137169)
(1.11453 -0.0202565 0.00171054)
(1.10917 -0.0194263 0.00204841)
(1.10389 -0.0180281 0.00235722)
(1.0988 -0.01616 0.0026087)
(1.09399 -0.0139743 0.002777)
(1.0895 -0.0116709 0.002841)
(1.08539 -0.00948493 0.00278605)
(1.08167 -0.00766747 0.00260492)
(1.07837 -0.00645814 0.00229784)
(1.0755 -0.00604791 0.00187162)
(1.07307 -0.00653431 0.00133813)
(1.07112 -0.00787493 0.00071255)
(1.06966 -0.00984921 1.19596e-05)
(1.06872 -0.0120403 -0.000745418)
(1.0683 -0.0138463 -0.00153992)
(1.06839 -0.0145253 -0.00234928)
(1.06891 -0.0132692 -0.00314681)
(1.06976 -0.00929586 -0.00389954)
(1.0707 -0.00194185 -0.0045668)
(1.11828 -0.0155669 0.00151924)
(1.11318 -0.0150578 0.001856)
(1.10807 -0.0140248 0.00218585)
(1.10304 -0.0125248 0.00248135)
(1.09821 -0.0106676 0.00271524)
(1.09365 -0.00861284 0.00286288)
(1.08942 -0.00656034 0.00290437)
(1.08557 -0.00473528 0.00282601)
(1.08214 -0.00336748 0.00262114)
(1.07912 -0.00266435 0.00229001)
(1.07654 -0.00277725 0.00183912)
(1.07442 -0.00376268 0.00127985)
(1.07277 -0.00554294 0.000627068)
(1.07161 -0.00787415 -0.000102088)
(1.07095 -0.0103312 -0.000888772)
(1.0708 -0.0123182 -0.0017122)
(1.07112 -0.0131086 -0.00254865)
(1.07186 -0.0119134 -0.00336987)
(1.07288 -0.00796643 -0.00414146)
(1.07397 -0.000614616 -0.00482159)
(1.30141 -0.020774 0.0012356)
(1.2983 -0.0544902 0.000230912)
(1.29082 -0.0870295 -0.000776754)
(1.27876 -0.118427 -0.00164557)
(1.26172 -0.148527 -0.00225458)
(1.23926 -0.176826 -0.00252871)
(1.21114 -0.202402 -0.0024535)
(1.17748 -0.223959 -0.00207838)
(1.13896 -0.240021 -0.00150744)
(1.09688 -0.249279 -0.000876271)
(1.28253 -0.0175011 0.00123485)
(1.27994 -0.0464988 0.000273051)
(1.27369 -0.0746369 -0.000715656)
(1.26366 -0.101916 -0.00160413)
(1.24955 -0.128203 -0.00228219)
(1.23106 -0.15312 -0.00267711)
(1.20799 -0.176005 -0.00276505)
(1.18038 -0.195946 -0.0025727)
(1.14862 -0.211891 -0.0021702)
(1.11355 -0.22285 -0.00165587)
(1.26641 -0.0141676 0.00123763)
(1.26423 -0.0392477 0.000331134)
(1.25894 -0.0637533 -0.000618949)
(1.25045 -0.0876487 -0.0014983)
(1.23858 -0.1108 -0.00220611)
(1.2231 -0.132895 -0.00267265)
(1.20384 -0.153423 -0.00286892)
(1.18086 -0.171707 -0.0028078)
(1.15441 -0.186982 -0.00253797)
(1.12506 -0.198515 -0.00213247)
(1.25234 -0.0109976 0.00124951)
(1.25049 -0.0327681 0.000407266)
(1.24595 -0.0542097 -0.000490575)
(1.2387 -0.0752571 -0.001341)
(1.2286 -0.0957705 -0.00205147)
(1.21545 -0.115474 -0.00255522)
(1.19917 -0.133946 -0.00282007)
(1.17977 -0.150653 -0.00284972)
(1.15748 -0.165013 -0.00267867)
(1.13272 -0.176478 -0.00236297)
(1.23985 -0.00814191 0.00126766)
(1.23826 -0.0270758 0.000495692)
(1.23433 -0.0458843 -0.000340505)
(1.22808 -0.0644815 -0.00114806)
(1.21941 -0.0827236 -0.00184189)
(1.20815 -0.100359 -0.00235824)
(1.19422 -0.117023 -0.00266283)
(1.17767 -0.13227 -0.00275267)
(1.15867 -0.145633 -0.00265216)
(1.13759 -0.156685 -0.00240538)
(1.22865 -0.0056861 0.0012858)
(1.22725 -0.0221632 0.000587603)
(1.22381 -0.0386765 -0.000180695)
(1.21839 -0.0551276 -0.000935419)
(1.21089 -0.0713737 -0.00159848)
(1.20118 -0.0871833 -0.00210924)
(1.18918 -0.102232 -0.00243218)
(1.17493 -0.116135 -0.00255921)
(1.15859 -0.128494 -0.00250695)
(1.14046 -0.138959 -0.00231047)
(1.21856 -0.00366405 0.00129727)
(1.21729 -0.0179988 0.000674147)
(1.21425 -0.0324918 -2.25595e-05)
(1.20949 -0.0470392 -0.000717535)
(1.20296 -0.0615033 -0.00133931)
(1.19453 -0.0756724 -0.00183064)
(1.18413 -0.089256 -0.00215556)
(1.17178 -0.101911 -0.00230212)
(1.15762 -0.113288 -0.00228072)
(1.14192 -0.123081 -0.00211923)
(1.20947 -0.00207132 0.00129678)
(1.20828 -0.0145307 0.00074808)
(1.20554 -0.0272352 0.000124445)
(1.20132 -0.0400804 -0.00050639)
(1.19558 -0.0529367 -0.00107924)
(1.18821 -0.0656128 -0.0015405)
(1.17915 -0.0778479 -0.00185455)
(1.16839 -0.089334 -0.00200668)
(1.15604 -0.0997559 -0.00200234)
(1.14235 -0.108838 -0.00186344)
(1.2013 -0.000877887 0.00128106)
(1.20015 -0.0116926 0.000804476)
(1.19763 -0.0228094 0.000253451)
(1.19383 -0.0341265 -0.00031108)
(1.18873 -0.0455239 -0.000829843)
(1.18224 -0.0568301 -0.00125303)
(1.17429 -0.0678127 -0.00154604)
(1.16486 -0.0781943 -0.00169245)
(1.15404 -0.0876882 -0.00169392)
(1.14203 -0.096039 -0.00156744)
(1.19401 -3.89406e-05 0.00124891)
(1.19286 -0.0094102 0.000840809)
(1.19049 -0.0191165 0.000360271)
(1.18701 -0.0290597 -0.000137773)
(1.18242 -0.0391302 -0.000599505)
(1.17663 -0.0491753 -0.000978952)