/*--------------------------------*- C++ -*----------------------------------*\
| =========                 |                                                 |
| \\      /  F ield         | OpenFOAM: The Open Source CFD Toolbox           |
|  \\    /   O peration     | Version:  2112                                  |
|   \\  /    A nd           | Website:  www.openfoam.com                      |
|    \\/     M anipulation  |                                                 |
\*---------------------------------------------------------------------------*/
FoamFile
{
    version     2.0;
    format      ascii;
    arch        "LSB;label=32;scalar=64";
    class       volScalarField;
    location    "0";
    object      error_U;
}
// * * * * * * * * * * * * * * * * * * * * * * * * * * * * * * * * * * * * * //

dimensions      [0 1 -1 0 0 0 0];

internalField   nonuniform List<scalar> 
2000
(
0.0353743
0.0165536
0.0272122
0.0211457
0.0103127
0.00456398
0.0110172
0.0186935
0.0256699
0.0311882
0.0488135
0.0358855
0.0351612
0.0255968
0.0138401
0.00655191
0.0133917
0.0230595
0.0311889
0.0368651
0.0817984
0.0518747
0.0398678
0.0280857
0.0167598
0.0117565
0.0191549
0.0290476
0.0366952
0.0409331
0.11233
0.0616236
0.0398845
0.0273131
0.0174677
0.0163907
0.0254927
0.0352055
0.041914
0.0450569
0.13676
0.0659851
0.0360014
0.0235036
0.0165515
0.0209958
0.0316831
0.0406753
0.0458814
0.0474571
0.155459
0.0677245
0.0308967
0.0188378
0.017391
0.0269746
0.0380016
0.0455513
0.0488571
0.0487027
0.169848
0.0696895
0.0282934
0.0177782
0.0226592
0.034332
0.0443377
0.0499686
0.0513783
0.0497518
0.181123
0.0730833
0.0301866
0.0222838
0.030183
0.0415501
0.0498601
0.0535887
0.0534756
0.0508978
0.189748
0.0772147
0.0346897
0.0285015
0.0367979
0.0469361
0.053541
0.055806
0.0547682
0.0518305
0.195804
0.0808108
0.0390714
0.0332432
0.0406739
0.049403
0.0547079
0.0561718
0.0548849
0.0521501
0.297108
0.18136
0.266501
0.353379
0.395861
0.39854
0.373232
0.330877
0.279684
0.226142
0.19917
0.0932809
0.192674
0.262797
0.289735
0.285404
0.260863
0.224246
0.182294
0.141095
0.155365
0.0285493
0.12754
0.181731
0.199941
0.193861
0.171791
0.140929
0.108207
0.0788858
0.15279
0.0183301
0.073452
0.115818
0.129757
0.123196
0.103528
0.0786986
0.0552454
0.0365499
0.161752
0.0473366
0.0325725
0.0669421
0.0779191
0.0706718
0.053809
0.0355792
0.0209304
0.0112908
0.164111
0.0619834
0.00623552
0.0342578
0.0417113
0.0338243
0.0205828
0.00943818
0.00431522
0.00470784
0.154355
0.0637055
0.0108888
0.0165647
0.0188294
0.0107535
0.00467182
0.00794947
0.00907404
0.00725339
0.132372
0.0545447
0.0162072
0.0125898
0.0084645
0.00546336
0.0111707
0.0139729
0.0134518
0.0121067
0.100515
0.037301
0.0169375
0.0141947
0.0078084
0.00902431
0.0141086
0.0166863
0.0184499
0.0219328
0.0635707
0.0168938
0.0197837
0.0169254
0.00847072
0.00790422
0.0129279
0.0173181
0.0215244
0.0251058
0.176441
0.134951
0.101466
0.0759737
0.057322
0.0440173
0.0347022
0.0283415
0.0242173
0.0218211
0.0207167
0.0204548
0.0205839
0.0207069
0.0205061
0.0197532
0.0182879
0.0160139
0.012897
0.00900728
0.107016
0.0818363
0.0619747
0.0469674
0.0359699
0.0281164
0.0226907
0.0191656
0.017158
0.016345
0.0163853
0.0169055
0.0175483
0.0180041
0.0180294
0.0174463
0.0161308
0.0140183
0.0111165
0.00762438
0.0576265
0.0445284
0.0343477
0.0266348
0.0209651
0.0169657
0.0143496
0.0128965
0.0124115
0.0126833
0.0134629
0.0144764
0.0154518
0.0161446
0.0163567
0.0159371
0.0147868
0.0128716
0.0102597
0.00734044
0.0247271
0.0198017
0.0160826
0.0132292
0.0111565
0.00979222
0.00907917
0.00896747
0.00940408
0.0103026
0.0115173
0.0128465
0.0140653
0.0149597
0.0153457
0.0150896
0.0141107
0.0124014
0.0100936
0.00772834
0.00644156
0.00606399
0.00597562
0.00601181
0.00604613
0.00608285
0.00624737
0.00669974
0.00754646
0.00878093
0.0102804
0.0118517
0.0132763
0.0143474
0.0148922
0.0147869
0.0139659
0.0124462
0.0104045
0.00845643
0.00836026
0.00632501
0.00459817
0.00438498
0.00448534
0.0045685
0.00482192
0.00546178
0.00655212
0.00802102
0.00971844
0.011452
0.0130148
0.0142123
0.0148792
0.0149006
0.014219
0.0128666
0.0110414
0.00937832
0.0127356
0.00982161
0.00640796
0.00506595
0.00468153
0.00477549
0.00517227
0.0058478
0.00685471
0.00821244
0.00983252
0.0115398
0.0131234
0.0143797
0.0151354
0.0152695
0.0147242
0.0135324
0.011897
0.0104412
0.0178072
0.0150697
0.0121846
0.0110307
0.0103224
0.00964721
0.00896498
0.00847899
0.00846727
0.00909302
0.0102835
0.0117899
0.0133193
0.0146129
0.0154653
0.015734
0.0153474
0.0143312
0.0128839
0.011608
0.0262664
0.0266192
0.0260663
0.0238044
0.0204595
0.0169336
0.0138072
0.011443
0.0100842
0.00983967
0.0105601
0.0118767
0.0133877
0.0147637
0.0157581
0.0162013
0.016005
0.0151842
0.0139302
0.0128319
0.026844
0.0305121
0.0300064
0.0257446
0.0209674
0.0166661
0.0131846
0.0106985
0.00933909
0.00917078
0.0100288
0.0115259
0.013244
0.014839
0.0160505
0.0167016
0.0166998
0.0160597
0.0149817
0.014054
0.0287163
0.0260025
0.0206084
0.0150365
0.0107003
0.00769849
0.00581573
0.00483976
0.00478382
0.00576514
0.00758736
0.00984972
0.0121785
0.0142684
0.0158862
0.016875
0.0171611
0.0167792
0.0159421
0.0152345
0.0360883
0.0304891
0.0244917
0.0187971
0.0139952
0.0103388
0.0078235
0.00633043
0.0058428
0.00647382
0.00807554
0.0102275
0.0125048
0.0145741
0.0161955
0.0172152
0.0175711
0.0173066
0.0166466
0.0161606
0.0399034
0.0334415
0.0272175
0.0214226
0.0164109
0.0124458
0.00962491
0.0078877
0.00720365
0.00760458
0.00896989
0.0109218
0.0130459
0.015003
0.0165483
0.0175329
0.0179027
0.0177132
0.0171962
0.0169148
0.0400251
0.0341224
0.0283455
0.0228832
0.0180371
0.0140977
0.0112233
0.00944428
0.00871507
0.00900311
0.0101636
0.0118772
0.0137741
0.0155354
0.0169291
0.0178029
0.0181299
0.0179638
0.0175531
0.0174529
0.0376298
0.0329463
0.0281227
0.0233769
0.0190402
0.0154098
0.0127036
0.0110215
0.0103365
0.0105712
0.011552
0.0130195
0.0146394
0.0161419
0.017307
0.0180158
0.0182301
0.0180401
0.017687
0.0177419
0.033918
0.0306463
0.0270012
0.0232239
0.0196186
0.0165019
0.0141319
0.0126346
0.0120255
0.0122265
0.0130577
0.0142699
0.0156054
0.0167944
0.017678
0.0181496
0.0181975
0.01792
0.0175845
0.0177686
0.0298631
0.0278903
0.0254511
0.022715
0.019956
0.017473
0.0155148
0.0142646
0.0137658
0.0139332
0.0146147
0.0155838
0.0165977
0.0174582
0.0180263
0.0182103
0.0180373
0.0176166
0.0172473
0.0175207
0.0261244
0.0252223
0.023836
0.0220883
0.0201794
0.0183553
0.0168642
0.0158837
0.0154907
0.0156252
0.0161597
0.0168763
0.0175824
0.0180947
0.0183166
0.0181798
0.017734
0.0171305
0.0166861
0.017015
0.0230386
0.0229298
0.0224006
0.021502
0.0203576
0.019171
0.0181401
0.0174428
0.0171565
0.0172624
0.0176358
0.0181109
0.0185033
0.0186744
0.0185304
0.0180599
0.0173245
0.0164903
0.0159249
0.0162666
0.0206795
0.0211069
0.0212259
0.0210105
0.0205282
0.0199093
0.0193178
0.0188964
0.0187194
0.0187897
0.0190114
0.0192436
0.0193283
0.0191532
0.01866
0.0178445
0.0168033
0.0157146
0.0149895
0.0153108
0.0189797
0.0197335
0.0203068
0.020624
0.0206852
0.0205652
0.0203664
0.0202007
0.0201377
0.0201733
0.020243
0.0202339
0.0200182
0.0195118
0.0186731
0.0175379
0.0161758
0.0148356
0.0139222
0.0141835
0.0178922
0.0187789
0.0196325
0.020335
0.0208278
0.0211212
0.0212701
0.0213453
0.0213834
0.0213874
0.0213089
0.0210551
0.0205457
0.019722
0.018561
0.017109
0.0154673
0.0138597
0.0127429
0.0129184
0.0174758
0.0182955
0.0192518
0.0201847
0.020984
0.0216015
0.0220376
0.0223096
0.0224335
0.022405
0.0221741
0.0216936
0.0208963
0.0197579
0.0182953
0.0165581
0.0146656
0.0128226
0.0114924
0.0115524
0.0178736
0.0184265
0.0192822
0.0202672
0.0212243
0.0220524
0.0226903
0.0231113
0.0232939
0.0232187
0.0228476
0.0221276
0.0210446
0.0196061
0.017857
0.0158724
0.0137601
0.0117223
0.010195
0.0101245
0.0191843
0.01932
0.0198829
0.0207188
0.0216563
0.0225499
0.0232788
0.0237771
0.0239776
0.0238345
0.0233002
0.0223577
0.0209953
0.0192662
0.0172478
0.0150381
0.0127547
0.0105685
0.00887765
0.00864934
0.0213799
0.0210421
0.0211759
0.0216792
0.0224083
0.0231945
0.023888
0.0243607
0.0245104
0.0242605
0.0235544
0.0223775
0.020743
0.0187256
0.0164459
0.0140426
0.0116418
0.00936763
0.00754559
0.00716314
0.0243304
0.0235433
0.0231803
0.0232254
0.0235807
0.0240931
0.0245958
0.0249186
0.0249354
0.0245251
0.0236164
0.022189
0.020281
0.0179776
0.0154529
0.0128771
0.0104069
0.00813039
0.00625135
0.00567782
0.0278386
0.0266745
0.025835
0.0253685
0.025231
0.0253187
0.0254773
0.025527
0.0252964
0.0246573
0.0235103
0.0218171
0.0196176
0.0170387
0.0142761
0.0115493
0.00906443
0.00688532
0.00505121
0.00426735
0.0317402
0.0302577
0.0289989
0.028019
0.0273459
0.0269181
0.0266024
0.0262441
0.0256618
0.0247083
0.0232564
0.0212737
0.0187753
0.0159144
0.0129119
0.0100666
0.00763942
0.00570749
0.0041003
0.00307713
0.035898
0.0341539
0.0325206
0.0310796
0.029863
0.0288601
0.0279873
0.0271133
0.0260752
0.0247094
0.0228965
0.0205781
0.0177683
0.0146171
0.011392
0.00845244
0.00620232
0.00477587
0.0037091
0.00254724
0.0482849
0.0475413
0.0467934
0.0464028
0.0465218
0.0467723
0.0460575
0.0433772
0.0402424
0.0342665
0.0455024
0.044012
0.0427887
0.0422885
0.042824
0.0442641
0.0458476
0.0465357
0.0463793
0.0423332
0.0431888
0.040964
0.0390717
0.0379411
0.03787
0.0388778
0.0405675
0.0425225
0.0449334
0.0437306
0.0413982
0.0384897
0.0358652
0.0338952
0.0328623
0.0329419
0.0343464
0.0373346
0.040593
0.0405295
0.040101
0.0366108
0.0333066
0.0305308
0.0285801
0.0278903
0.0291288
0.0323643
0.035097
0.0353911
0.0392106
0.0353024
0.0314995
0.0281322
0.0255635
0.0243882
0.0253127
0.0278599
0.0295987
0.0299557
0.0386448
0.0345013
0.03042
0.0267334
0.0238418
0.0223264
0.0226553
0.0240997
0.0248707
0.0251191
0.0383172
0.034117
0.0299653
0.0261896
0.0231536
0.0213187
0.0208973
0.0212516
0.0212487
0.021317
0.0381679
0.0340479
0.029978
0.0262563
0.0231734
0.0210168
0.0198716
0.0193145
0.0187464
0.0186255
0.0381463
0.0342099
0.0303274
0.0267457
0.0236671
0.0212393
0.019489
0.0182148
0.0172038
0.0168918
0.0382263
0.0345427
0.0309173
0.0275428
0.0245215
0.021915
0.019723
0.0179061
0.0164875
0.0159162
0.0384015
0.0350172
0.031694
0.0285694
0.0256858
0.0230169
0.0205675
0.01836
0.0165601
0.0156244
0.0386825
0.0356296
0.0326434
0.029814
0.0271285
0.0245292
0.0219862
0.019563
0.0174389
0.0160652
0.0390824
0.0363775
0.0337554
0.0312584
0.0288406
0.0264164
0.0239357
0.0214432
0.0191111
0.0173346
0.0396275
0.0372925
0.0350481
0.0329085
0.0308041
0.0286325
0.0263261
0.0239062
0.0214995
0.0194161
0.0403559
0.0383888
0.0365394
0.0347806
0.033015
0.0311479
0.029085
0.0268259
0.0244543
0.0222288
0.041297
0.039702
0.0382411
0.0368618
0.0354657
0.033919
0.032143
0.030096
0.0278539
0.0255979
0.0424881
0.0412562
0.0401806
0.0391714
0.0381301
0.0369162
0.0354378
0.0336346
0.0315779
0.0293844
0.0439531
0.0430832
0.0423722
0.0417262
0.0410236
0.0401266
0.0389326
0.0373958
0.0355289
0.0334495
0.0457307
0.0452002
0.0448314
0.0445227
0.0441381
0.043545
0.0426419
0.0413483
0.0396772
0.0377192
0.0534803
0.04932
0.0462599
0.0448899
0.0443905
0.0420838
0.0348845
0.0319524
0.0767483
0.184912
0.0521589
0.0497904
0.0498315
0.0528398
0.0577847
0.0613903
0.0587278
0.0499461
0.078539
0.193586
0.0498408
0.0486961
0.0502748
0.0553205
0.0631932
0.0710703
0.0737908
0.0680909
0.0856482
0.198431
0.0460459
0.0457542
0.047514
0.0524701
0.0607993
0.0706414
0.0774481
0.0768509
0.0923106
0.201186
0.0438327
0.0433216
0.0440356
0.0471571
0.0536792
0.0630466
0.0718705
0.0759675
0.0947325
0.20244
0.0438497
0.043021
0.0424783
0.0430095
0.0460365
0.0525975
0.0611341
0.0686083
0.0931323
0.202621
0.0455639
0.0449436
0.0439039
0.0425478
0.0418245
0.0438121
0.0497443
0.0589945
0.0897882
0.20234
0.0479662
0.0480767
0.0474283
0.0455289
0.0424355
0.0398612
0.0414532
0.0507894
0.086825
0.201958
0.0501626
0.0512608
0.0514353
0.0498061
0.045758
0.0401944
0.0374994
0.0455897
0.0848914
0.20124
0.0516175
0.0536712
0.0546095
0.0532873
0.0487413
0.04142
0.035765
0.0423656
0.0832447
0.199456
0.159077
0.153002
0.140966
0.121636
0.0935991
0.0567437
0.0351115
0.0943227
0.195283
0.335101
0.111432
0.109857
0.103131
0.0898027
0.0684138
0.0388802
0.0298723
0.0875922
0.177947
0.304552
0.0775693
0.0792254
0.0770297
0.069431
0.0548575
0.0324777
0.0218054
0.0693225
0.147848
0.261925
0.0571558
0.0607055
0.0619411
0.0594652
0.0519087
0.0382037
0.0227252
0.044394
0.107691
0.209504
0.047766
0.0518651
0.0551104
0.0564189
0.0547282
0.0487628
0.0367637
0.0255707
0.0631339
0.153784
0.0459156
0.0492173
0.0526347
0.0557038
0.0578345
0.0578006
0.0523321
0.0352161
0.0265508
0.1075
0.0480298
0.0492488
0.0506535
0.052808
0.056144
0.0601049
0.0614405
0.0532
0.0372997
0.0927382
0.0517464
0.0495328
0.0470146
0.0453557
0.0464038
0.0514625
0.0583826
0.0612519
0.0630418
0.113811
0.0554919
0.0493276
0.0430232
0.0366721
0.0319654
0.0330057
0.0417147
0.0545439
0.0772622
0.144572
0.0562497
0.0492822
0.0427248
0.0363392
0.0297957
0.0234312
0.0222651
0.0375476
0.0793492
0.169313
0.10548
0.0996336
0.0978917
0.0966432
0.0959819
0.0960078
0.0968236
0.0985263
0.101196
0.104885
0.109604
0.115305
0.121869
0.129089
0.136655
0.144141
0.151003
0.156579
0.160109
0.160738
0.105816
0.0948944
0.0918384
0.0890197
0.0865003
0.0843524
0.0826635
0.0815258
0.0810336
0.0812747
0.0823182
0.0841998
0.0869119
0.0903806
0.0944522
0.0988773
0.103295
0.107221
0.110042
0.111005
0.108857
0.0931505
0.0893876
0.0856928
0.0820963
0.0786409
0.0753846
0.0723984
0.069765
0.0675797
0.0659415
0.0649475
0.0646762
0.0651713
0.0664138
0.0683032
0.0706322
0.07308
0.0751999
0.0763203
0.113181
0.0933443
0.0892926
0.0852177
0.0811276
0.0770444
0.0729986
0.0690345
0.0652118
0.0616055
0.0583121
0.0554456
0.0531377
0.0515272
0.0507319
0.0508097
0.0517135
0.0532567
0.0551287
0.0565266
0.117637
0.0947049
0.0906178
0.0864711
0.0822674
0.0780194
0.0737462
0.0694765
0.0652488
0.0611186
0.0571565
0.0534591
0.050156
0.047414
0.0454343
0.0444217
0.0445197
0.0457138
0.0478467
0.0495118
0.121395
0.0966984
0.0926952
0.0886254
0.0844984
0.0803333
0.076153
0.0719859
0.0678671
0.0638372
0.0599469
0.0562597
0.0528617
0.0498771
0.0474924
0.0459746
0.0456442
0.0467479
0.0494372
0.0511938
0.123911
0.0989895
0.0950957
0.0911241
0.0871102
0.083092
0.0791086
0.0752001
0.0714113
0.0677889
0.0643793
0.0612247
0.0583604
0.0558273
0.0537009
0.052158
0.0515369
0.0523005
0.0551748
0.0565632
0.124865
0.101416
0.0975841
0.0936382
0.0896679
0.0857378
0.0819008
0.0782111
0.0747291
0.071528
0.0686814
0.0662603
0.0643125
0.0628508
0.0618348
0.0611911
0.0608699
0.0609189
0.0621804
0.061788
0.124048
0.104012
0.100061
0.095976
0.091934
0.0879961
0.0842
0.0805969
0.0772568
0.0742781
0.0717812
0.0699119
0.0688262
0.0686658
0.0694759
0.0710562
0.0727611
0.0732121
0.0707012
0.0648865
0.121178
0.107325
0.102384
0.0979244
0.0937339
0.0897282
0.0858844
0.0822229
0.078798
0.0757036
0.0730657
0.0710487
0.069846
0.0696506
0.0705767
0.0724937
0.0748114
0.0758729
0.0714059
0.0615871
0.117123
0.109095
0.103823
0.0992176
0.0949422
0.0908521
0.0868869
0.0830407
0.0793465
0.0758764
0.0727332
0.0700489
0.0679764
0.0666792
0.0662938
0.0668471
0.0681223
0.0692764
0.0679824
0.0637726
0.114555
0.10945
0.104811
0.100548
0.0965409
0.0927038
0.0889923
0.0854015
0.0819603
0.0787339
0.0758157
0.0733252
0.0713968
0.0701589
0.0696714
0.0698226
0.0702198
0.0701899
0.0689904
0.0671665
0.113323
0.109178
0.105119
0.10124
0.0975235
0.093937
0.090447
0.0870613
0.0838063
0.0807375
0.0779434
0.0755354
0.0736301
0.0723245
0.0716265
0.0713579
0.0711138
0.0703838
0.0688364
0.0667406
0.112304
0.108583
0.104931
0.101382
0.0979302
0.0945641
0.0912613
0.088033
0.0848996
0.0819155
0.079169
0.0767574
0.0747866
0.0733359
0.0723808
0.0717141
0.0709622
0.0697104
0.0676808
0.0648325
0.111138
0.107682
0.104319
0.101033
0.0978061
0.0946266
0.0914745
0.0883494
0.0852859
0.0823316
0.0795707
0.0770994
0.0750087
0.0733777
0.0721619
0.0711488
0.0700073
0.0684018
0.0660875
0.0629158
0.109703
0.106458
0.103317
0.10024
0.0972023
0.0941688
0.0911233
0.0880702
0.085034
0.0820656
0.0792501
0.076677
0.0744499
0.0726257
0.0711702
0.0698853
0.0684883
0.0667206
0.0644002
0.0613845
0.107968
0.104906
0.101948
0.0990499
0.0961532
0.0932375
0.0902688
0.0872511
0.0842122
0.0812041
0.0783058
0.0756199
0.0732505
0.0712519
0.0695943
0.0681191
0.0666097
0.0648681
0.0627601
0.0601719
0.105935
0.10304
0.100245
0.0974898
0.0947209
0.0918882
0.0889754
0.0859721
0.0828997
0.0798308
0.0768407
0.0740429
0.0715369
0.0693946
0.0675934
0.0660203
0.0645146
0.0629349
0.0611923
0.0591754
0.103628
0.100888
0.0982388
0.0956092
0.0929393
0.0901786
0.0872936
0.0842863
0.0811744
0.078031
0.0749521
0.072046
0.0694316
0.0671754
0.0652993
0.0637055
0.0623072
0.0610027
0.0597027
0.0582934
0.101075
0.0984814
0.0959617
0.0934459
0.0908593
0.0881575
0.0852901
0.0822626
0.079101
0.0758862
0.0727195
0.0697273
0.0670244
0.0647079
0.0628054
0.061272
0.060058
0.0590842
0.0582768
0.0574549
0.098314
0.0958531
0.0934569
0.0910408
0.0885289
0.085869
0.0830103
0.0799577
0.0767472
0.073469
0.070224
0.0671623
0.0644058
0.0620634
0.06019
0.0587787
0.0578021
0.0572099
0.0568882
0.0566353
0.0953727
0.0930395
0.0907577
0.0884323
0.0859931
0.0833639
0.0805108
0.0774281
0.0741744
0.0708265
0.0675258
0.0644167
0.0616389
0.059311
0.0575177
0.0562697
0.0555793
0.0553784
0.0555306
0.0557932
0.0922952
0.0900809
0.0879048
0.0856672
0.0832827
0.0806892
0.0778325
0.0747246
0.0714197
0.0680276
0.0646838
0.0615491
0.0587734
0.056501
0.0548181
0.0537751
0.0533816
0.0535808
0.0541851
0.0549261
0.0891133
0.0870127
0.0849332
0.0827795
0.0804472
0.0778769
0.0750171
0.071882
0.0685383
0.0651067
0.0617335
0.0586002
0.0558599
0.0536614
0.0521238
0.0513063
0.0512321
0.0518127
0.0528478
0.0540223
0.0858616
0.0838687
0.0818855
0.0798011
0.0775223
0.0749671
0.072109
0.0689478
0.0655695
0.062111
0.0587289
0.0556068
0.0529213
0.0508292
0.0494542
0.0488758
0.0491077
0.0500649
0.0515067
0.0530895
0.0825777
0.0806815
0.078783
0.0767668
0.0745306
0.0719971
0.0691318
0.0659491
0.062543
0.0590608
0.055686
0.0525967
0.0499844
0.0480101
0.0468101
0.0464735
0.0470145
0.0483226
0.0501521
0.0521244
0.0792901
0.0774867
0.0756652
0.0737095
0.0715145
0.0689965
0.0661187
0.0629164
0.0594863
0.0559975
0.0526362
0.0495959
0.0470741
0.0452272
0.0442047
0.0441031
0.0449313
0.0465822
0.0487807
0.0511162
0.0760339
0.0743141
0.0725652
0.0706611
0.0684982
0.0659868
0.0631005
0.0598724
0.0564249
0.052932
0.0495982
0.0466188
0.0441935
0.0424807
0.0416346
0.0417524
0.0428524
0.0448197
0.0473681
0.050079
0.0728394
0.0711927
0.0695001
0.0676462
0.0655041
0.0629945
0.0600956
0.0568444
0.0533839
0.0498918
0.0465908
0.0436857
0.041358
0.0397789
0.0390934
0.0394115
0.040751
0.0430144
0.0459128
0.0490105
0.0697317
0.0681494
0.0665098
0.0646827
0.0625591
0.0600443
0.0571206
0.0538532
0.05037
0.0468878
0.0436282
0.0408025
0.0385794
0.0371211
0.0365762
0.0370556
0.0386071
0.041146
0.044393
0.0478904
0.0522379
0.0523544
0.0525258
0.049706
0.0476251
0.0469311
0.0472787
0.0480431
0.0486407
0.048721
0.0612308
0.061002
0.0606713
0.0565632
0.052537
0.0499934
0.0487889
0.0482736
0.0477629
0.0468451
0.0626824
0.0593877
0.05968
0.058163
0.0551281
0.0522258
0.0501038
0.048572
0.0471063
0.0453224
0.0628759
0.0577409
0.056739
0.0567408
0.0553794
0.053152
0.0508743
0.0487899
0.0466627
0.0442038
0.0626304
0.057276
0.054821
0.0547208
0.0543139
0.0529515
0.0510215
0.0488291
0.0463401
0.0434258
0.0620908
0.0573088
0.0540873
0.0532715
0.0530046
0.0522104
0.0507321
0.0486792
0.0460751
0.042888
0.0613637
0.0573864
0.0540195
0.0525304
0.0519743
0.0513721
0.0502246
0.0483849
0.0458041
0.0425055
0.0605368
0.0573686
0.0542047
0.0523022
0.0513352
0.0506498
0.0496632
0.0480058
0.0455135
0.0422205
0.0596795
0.0572269
0.0544335
0.0523431
0.0510182
0.0501253
0.0491415
0.0475863
0.0452061
0.041997
0.0588181
0.0569948
0.0546192
0.0525092
0.0509195
0.0497807
0.0486978
0.0471775
0.0448913
0.0418153
0.0579679
0.0566884
0.0547256
0.0527024
0.0509473
0.0495836
0.0483448
0.0467984
0.0445983
0.0416809
0.0571287
0.0563311
0.0547637
0.0528767
0.0510421
0.0494833
0.0480821
0.0464747
0.0443409
0.0415989
0.056317
0.0559464
0.0547484
0.0530237
0.0511618
0.0494547
0.0479047
0.0462276
0.0441547
0.0415979
0.0555151
0.0555551
0.0546889
0.0531428
0.0513029
0.0494955
0.0478155
0.0460783
0.044069
0.0417048
0.0547399
0.0551563
0.0546082
0.0532575
0.0514615
0.0496004
0.0478241
0.0460516
0.044111
0.0419464
0.0539798
0.0547724
0.0545399
0.0533917
0.0516732
0.0497866
0.0479578
0.0461693
0.0443199
0.0423632
0.0532351
0.0544168
0.0545017
0.0535677
0.051955
0.0500897
0.0482355
0.0464628
0.0447274
0.0429943
0.0525103
0.0541058
0.0545205
0.0538174
0.0523401
0.0505296
0.0487008
0.0469738
0.0453669
0.0438674
0.0518079
0.0538453
0.0546264
0.0541914
0.0528794
0.0511614
0.0493859
0.0477444
0.0462865
0.0450238
0.0511209
0.0536607
0.0548641
0.0547325
0.053624
0.0520179
0.0503311
0.0487945
0.0475139
0.0464947
)
;

boundaryField
{
    down
    {
        type            symmetryPlane;
    }
    right
    {
        type            calculated;
        value           nonuniform List<scalar> 
30
(
0.00900728
0.00762438
0.00734044
0.00772834
0.00845643
0.00937832
0.0104412
0.011608
0.0128319
0.014054
0.0152345
0.0161606
0.0169148
0.0174529
0.0177419
0.0177686
0.0175207
0.017015
0.0162666
0.0153108
0.0141835
0.0129184
0.0115524
0.0101245
0.00864934
0.00716314
0.00567782
0.00426735
0.00307713
0.00254724
)
;
    }
    up
    {
        type            symmetryPlane;
    }
    left
    {
        type            calculated;
        value           uniform 0;
    }
    cylinder
    {
        type            symmetry;
    }
    defaultFaces
    {
        type            empty;
    }
}


// ************************************************************************* //
