/*--------------------------------*- C++ -*----------------------------------*\
| =========                 |                                                 |
| \\      /  F ield         | OpenFOAM: The Open Source CFD Toolbox           |
|  \\    /   O peration     | Version:  2112                                  |
|   \\  /    A nd           | Website:  www.openfoam.com                      |
|    \\/     M anipulation  |                                                 |
\*---------------------------------------------------------------------------*/
FoamFile
{
    version     2.0;
    format      ascii;
    arch        "LSB;label=32;scalar=64";
    class       volScalarField;
    location    "0";
    object      error_Phi;
}
// * * * * * * * * * * * * * * * * * * * * * * * * * * * * * * * * * * * * * //

dimensions      [0 2 -1 0 0 0 0];

internalField   nonuniform List<scalar> 
2000
(
0.00781698
0.00864932
0.0156271
0.0169448
0.015202
0.012221
0.00911228
0.00641843
0.00417917
0.00225944
0.000104167
0.0140025
0.01927
0.019673
0.0177933
0.015282
0.0130242
0.0112563
0.00987764
0.00864786
0.00791682
0.0188259
0.0221054
0.0214928
0.019476
0.0174613
0.016014
0.0151001
0.0144535
0.0137989
0.0153187
0.0229292
0.0240993
0.0224957
0.020412
0.0189119
0.0182008
0.0179815
0.0178766
0.0175783
0.0221844
0.0263971
0.0255071
0.0230666
0.0210397
0.0200532
0.0199383
0.0202081
0.0204108
0.0202755
0.0285598
0.02949
0.026782
0.0237312
0.0218586
0.0213035
0.0215842
0.0220849
0.0223845
0.0222779
0.034621
0.0326123
0.028431
0.0249837
0.0232632
0.0229616
0.0233599
0.0238459
0.0240868
0.0239561
0.0406104
0.0361065
0.0308142
0.0271269
0.0254463
0.0251575
0.0254218
0.0257217
0.0258046
0.0256298
0.0466838
0.040203
0.0341296
0.0302318
0.0284548
0.0279355
0.0278947
0.0278797
0.0277591
0.0275325
0.0528618
0.0449398
0.0383388
0.0342534
0.0322205
0.0313228
0.0308494
0.0304863
0.0301496
0.029864
0.0436107
0.0174214
0.0546395
0.0723779
0.0761354
0.0717989
0.0641243
0.055652
0.0467824
0.0370957
0.0374322
0.0144713
0.0428958
0.0539087
0.0542156
0.0494854
0.0429849
0.0356268
0.0272873
0.0180877
0.0350568
0.00844898
0.0299643
0.0368951
0.0360496
0.0318751
0.0260971
0.0190262
0.0109231
0.00251629
0.0346998
0.00179546
0.0185595
0.0234561
0.0224814
0.0186663
0.0129611
0.00586413
0.00184725
0.00918796
0.034739
0.00362167
0.0101918
0.0142129
0.0132623
0.00940129
0.0035146
0.00352135
0.0106058
0.0168575
0.0339886
0.00675573
0.00532525
0.00895627
0.00789799
0.00381164
0.00217564
0.00888706
0.0152552
0.0205884
0.0317514
0.00730237
0.00372504
0.00707564
0.00581363
0.00159848
0.00422225
0.0104086
0.016043
0.0206874
0.0277891
0.00544007
0.00477742
0.00779573
0.00636719
0.00222732
0.0031641
0.00865278
0.0135509
0.0176312
0.0222306
0.00171822
0.00766643
0.0102828
0.00873421
0.00486823
0.000127674
0.00451006
0.00858397
0.0120656
0.0154242
0.00321302
0.0115524
0.0136023
0.0119654
0.00851727
0.00457227
0.000896326
0.0022334
0.00486309
0.0268741
0.016581
0.00688596
0.00143597
0.00796835
0.0126545
0.0156998
0.0174709
0.0184054
0.0189643
0.0195878
0.0206795
0.0225827
0.025578
0.0298801
0.0356443
0.0429764
0.0519482
0.0626063
0.0749938
0.009383
0.00166356
0.00512308
0.0105825
0.0145877
0.0172267
0.0187303
0.0194116
0.0196222
0.0197247
0.0200722
0.0209875
0.0227575
0.0256231
0.0297803
0.0353775
0.0425291
0.0513205
0.0618183
0.0740843
0.00445666
0.00983975
0.0142511
0.017541
0.019722
0.0209265
0.0213616
0.0212804
0.0209642
0.0207047
0.0207897
0.0214944
0.0230709
0.0257392
0.029689
0.0350768
0.0420305
0.0506522
0.0610333
0.0732536
0.0146015
0.0182404
0.0209753
0.0227918
0.0237601
0.0240151
0.0237326
0.0231213
0.0224105
0.0218439
0.0216696
0.0221311
0.0234625
0.0258797
0.0295776
0.0347256
0.0414699
0.0499392
0.0602462
0.0724959
0.0211764
0.023821
0.0256149
0.0266036
0.0268841
0.026586
0.0258662
0.0249079
0.0239088
0.0230832
0.0226552
0.022853
0.0239052
0.0260321
0.0294411
0.0343234
0.040852
0.0491827
0.0594572
0.0718074
0.0243883
0.0267931
0.0283299
0.0290668
0.029114
0.0286094
0.0277073
0.0265773
0.0254024
0.0243787
0.0237192
0.0236489
0.0243995
0.0262041
0.0292943
0.0338865
0.0401883
0.04839
0.0586679
0.0711849
0.0245073
0.0273066
0.0291519
0.0301217
0.0303461
0.0299743
0.0291583
0.0280587
0.0268457
0.02571
0.0248613
0.0245305
0.0249653
0.0264211
0.0291593
0.0334348
0.0394943
0.0475689
0.0578789
0.0706231
0.0218482
0.025478
0.0280135
0.0296109
0.0304131
0.0305459
0.0301298
0.0293026
0.0282235
0.0270827
0.0260999
0.0255249
0.0256319
0.0267114
0.0290626
0.0329872
0.0387796
0.0467244
0.0570871
0.0701143
0.016701
0.0213406
0.0248258
0.0274291
0.0292321
0.0302655
0.0305836
0.0302869
0.0295247
0.028496
0.0274432
0.0266476
0.0264195
0.0270937
0.0290209
0.0325551
0.0380524
0.0458542
0.0562869
0.069649
0.00925417
0.0148704
0.0197884
0.023829
0.0269757
0.029208
0.0305177
0.0309685
0.0306963
0.0299052
0.0288631
0.0278832
0.0273235
0.0275729
0.0290399
0.0321471
0.0373147
0.0449586
0.0554717
0.0692169
0.00315967
0.00926675
0.0150782
0.0201987
0.0244377
0.0276824
0.0298725
0.0310316
0.031272
0.0307935
0.0298746
0.0288547
0.0281271
0.0281195
0.0292843
0.032091
0.0370116
0.0445087
0.0550263
0.0689689
0.000540863
0.00669617
0.0126791
0.0181683
0.0228882
0.0266506
0.0293359
0.0309251
0.031505
0.031263
0.0304776
0.029499
0.0287354
0.0286353
0.0296738
0.0323397
0.0371281
0.0445212
0.0549824
0.0689318
0.00131249
0.00478733
0.010833
0.0165041
0.0215266
0.0256514
0.0287212
0.0306721
0.0315561
0.0315406
0.0308936
0.0299703
0.0291913
0.029021
0.0299563
0.0325085
0.0371917
0.0445095
0.0549403
0.0689186
0.00220132
0.00369081
0.00961849
0.0153074
0.02045
0.0247777
0.0281049
0.0303286
0.031463
0.0316469
0.0311337
0.0302743
0.029495
0.0292762
0.0301328
0.0325959
0.0372005
0.0444693
0.0548945
0.0689226
0.00221401
0.00336329
0.00905624
0.0145931
0.0196964
0.0240859
0.027545
0.0299445
0.031265
0.0316127
0.03122
0.030426
0.0296584
0.0294085
0.0302062
0.0326045
0.0371556
0.0443988
0.054842
0.0689387
0.00151085
0.00369337
0.00906568
0.0143482
0.0192914
0.0236073
0.0270826
0.0295635
0.0310012
0.0314703
0.031177
0.0304441
0.0296956
0.0294272
0.0301859
0.0325396
0.0370595
0.0443014
0.0547814
0.068963
0.000297054
0.00454598
0.00954996
0.014519
0.0191955
0.0233468
0.0267406
0.0292163
0.0307036
0.0312486
0.0310296
0.0303494
0.0296229
0.0293487
0.0300832
0.0324107
0.0369198
0.044177
0.0547131
0.0689932
0.00124758
0.00575283
0.0103992
0.015009
0.0193871
0.0232886
0.0265231
0.0289217
0.030397
0.0309732
0.030801
0.0301628
0.0294583
0.0291862
0.0299106
0.0322281
0.0367423
0.0440327
0.0546383
0.0690278
0.00297891
0.00719753
0.0115017
0.015756
0.0197869
0.0234042
0.0264215
0.028682
0.0300937
0.030661
0.0305102
0.0299001
0.0292187
0.028956
0.0296802
0.0320021
0.0365348
0.0438725
0.0545594
0.0690657
0.00476864
0.00876462
0.0127611
0.0166689
0.0203522
0.0236502
0.026412
0.0284904
0.0297941
0.0303167
0.0301645
0.0295742
0.0289131
0.0286671
0.0294031
0.0317402
0.0363061
0.0437023
0.0544782
0.0691063
0.00653705
0.0103434
0.0140816
0.0176616
0.0210112
0.0239837
0.0264654
0.0283288
0.0294921
0.0299407
0.0297673
0.0291865
0.0285483
0.0283254
0.0290852
0.0314515
0.0360605
0.0435247
0.0543962
0.0691485
0.00820155
0.0118781
0.0153891
0.0186866
0.0217068
0.0243597
0.0265482
0.0281758
0.0291709
0.0295234
0.0293114
0.0287334
0.0281211
0.0279321
0.0287292
0.0311373
0.0358017
0.0433412
0.0543145
0.0691905
0.00974363
0.0133264
0.016651
0.019685
0.0223977
0.0247374
0.0266289
0.0280037
0.0288122
0.0290481
0.0287856
0.0282072
0.0276254
0.0274818
0.0283309
0.0307972
0.0355298
0.0431536
0.05423
0.0692292
0.0111259
0.0146468
0.0178149
0.0206168
0.0230495
0.0250827
0.0266748
0.0277886
0.0283941
0.0284983
0.0281731
0.0275907
0.0270462
0.0269627
0.0278816
0.0304229
0.0352376
0.0429557
0.0541402
0.0692598
0.0123493
0.0158269
0.018867
0.0214598
0.0236345
0.0253671
0.0266629
0.0275084
0.0278993
0.027856
0.0274577
0.0268681
0.0263669
0.0263583
0.0273672
0.0300039
0.0349191
0.0427416
0.0540381
0.069276
0.0134112
0.0168611
0.0197807
0.0221985
0.024121
0.0255699
0.0265726
0.0271456
0.0273095
0.0271063
0.0266232
0.0260228
0.0255686
0.0256497
0.0267686
0.0295248
0.0345585
0.0425
0.0539143
0.0692694
0.014344
0.0177499
0.0205753
0.0228134
0.0245028
0.0256775
0.0263908
0.0266855
0.0266125
0.0262354
0.0256565
0.0250371
0.0246343
0.0248164
0.0260673
0.0289663
0.0341406
0.0422172
0.0537576
0.0692295
0.0151629
0.0185275
0.021245
0.0233095
0.0247779
0.0256843
0.0261091
0.026123
0.0258022
0.0252376
0.0245468
0.0238998
0.0235474
0.02384
0.0252414
0.0283059
0.0336456
0.0418751
0.0535532
0.0691439
0.0158953
0.0192017
0.0218078
0.0237061
0.0249386
0.0255885
0.0257265
0.0254534
0.0248757
0.0241085
0.0232906
0.0226035
0.0222958
0.0227046
0.0242704
0.0275223
0.033051
0.0414547
0.053284
0.0689982
0.0165887
0.0198119
0.0222842
0.0240055
0.0250102
0.0253941
0.0252426
0.0246787
0.0238323
0.0228483
0.0218872
0.0211442
0.020872
0.0213962
0.0231371
0.0265956
0.0323359
0.0409342
0.0529301
0.0687759
0.0297357
0.027378
0.0253834
0.0236387
0.0219417
0.0199971
0.0174576
0.0139601
0.00915037
0.00295963
0.0297837
0.0272921
0.0250909
0.0231142
0.0212536
0.019322
0.017078
0.0142591
0.0106384
0.00563165
0.0300025
0.0273066
0.0248294
0.0225473
0.0204543
0.0184643
0.016451
0.0141748
0.0113074
0.00709994
0.0304045
0.027474
0.0246887
0.0220718
0.0196841
0.0175516
0.0155787
0.0135593
0.0110492
0.00742621
0.0309803
0.0277955
0.0246868
0.0217306
0.019019
0.0166262
0.0145221
0.0124839
0.0100847
0.00688655
0.0317029
0.0282753
0.0248533
0.0215359
0.0184725
0.0157411
0.0133471
0.0111009
0.00867638
0.00573513
0.032541
0.0288836
0.0251629
0.0215021
0.0180465
0.014925
0.0121468
0.00957982
0.00700404
0.00417731
0.0334717
0.029589
0.0255881
0.0215894
0.017745
0.0142039
0.0109876
0.00805416
0.00523878
0.00240505
0.0344419
0.0303607
0.0261014
0.0217866
0.017568
0.013585
0.00993214
0.00658926
0.00349334
0.000547677
0.0354196
0.031159
0.0266665
0.0220528
0.0174733
0.0130904
0.00899322
0.00524546
0.00184143
0.00129511
0.036375
0.0319668
0.0272593
0.0223783
0.0174687
0.0126995
0.00819708
0.00406201
0.000320907
0.00304293
0.0372704
0.0327294
0.0278381
0.0227258
0.0175229
0.0124107
0.00753619
0.00303058
0.00103228
0.0046515
0.0380811
0.0334253
0.0283848
0.0230707
0.0176169
0.0122027
0.00700102
0.00215784
0.00222074
0.00609884
0.0387653
0.0340263
0.0288643
0.0233916
0.0177238
0.0120556
0.00657151
0.00142741
0.00325305
0.00738212
0.0393043
0.0344975
0.029255
0.0236404
0.01781
0.0119316
0.00620814
0.000801401
0.00413178
0.00849514
0.0396823
0.0348272
0.0295192
0.023813
0.0178551
0.0118154
0.00588287
0.000261674
0.0049019
0.0094664
0.0398666
0.0349972
0.0296424
0.0238685
0.0178124
0.011645
0.00556988
0.000239093
0.00557937
0.0103174
0.0398373
0.0349623
0.0295936
0.02379
0.0176689
0.0114119
0.00521621
0.000716465
0.00619992
0.0110813
0.0395973
0.0347304
0.0293555
0.0235343
0.0173853
0.0110813
0.0048022
0.00122349
0.00681795
0.0117914
0.039122
0.0342724
0.0289137
0.0231014
0.0169461
0.010612
0.00429182
0.00180013
0.00745569
0.0124901
0.0676791
0.0665414
0.0651335
0.0631988
0.0604867
0.0568763
0.0527568
0.0496443
0.0507461
0.0608721
0.0660595
0.0654532
0.0647734
0.0638118
0.0623192
0.060111
0.0573561
0.0551015
0.0559982
0.0643194
0.0635945
0.0633877
0.0632967
0.0631634
0.0627836
0.0619696
0.0607604
0.0599021
0.0614085
0.0688157
0.060091
0.0601371
0.0604711
0.0609734
0.0614984
0.0618816
0.0621403
0.0628271
0.0654768
0.0727973
0.055581
0.0558243
0.0564578
0.0574216
0.058588
0.0598669
0.0613117
0.0634131
0.0673804
0.0751742
0.0504812
0.0508623
0.0516973
0.0529248
0.0544771
0.0563134
0.0585815
0.0617741
0.0669513
0.0754128
0.0453069
0.0457661
0.0466722
0.0479811
0.0496647
0.0517401
0.0544389
0.0583624
0.0644488
0.0735204
0.0404841
0.0409475
0.041817
0.0430562
0.0446391
0.0466693
0.049464
0.0537493
0.0604209
0.069817
0.0362659
0.0366908
0.03743
0.0384485
0.0397707
0.0415219
0.0441741
0.0485386
0.0554625
0.0648042
0.0327471
0.033088
0.0336404
0.0343609
0.0352804
0.0366292
0.0389908
0.0432552
0.0501323
0.0590093
0.0758796
0.0727244
0.0704212
0.0697479
0.0716593
0.0772076
0.0875801
0.104077
0.128232
0.161969
0.0921499
0.0891673
0.0860208
0.0834166
0.0824013
0.0842982
0.0906357
0.10312
0.123653
0.154465
0.0978064
0.095515
0.0924808
0.089104
0.0862586
0.0853772
0.0883063
0.0972368
0.114515
0.142785
0.0962791
0.0943434
0.091572
0.0880398
0.084284
0.0815509
0.0818394
0.087744
0.10216
0.128175
0.0911004
0.088968
0.0861198
0.0824544
0.0782295
0.0743872
0.0727813
0.076241
0.0881649
0.112137
0.0848398
0.082237
0.0790246
0.0750589
0.0704499
0.0658585
0.0629239
0.0644538
0.0742036
0.0962431
0.079052
0.0760941
0.0725501
0.068279
0.0633211
0.0581721
0.0542257
0.0541767
0.0619285
0.0819807
0.0745304
0.0715384
0.0680225
0.0637555
0.0586845
0.0531957
0.048464
0.0470226
0.0528227
0.0706495
0.071342
0.0687708
0.0657172
0.0619168
0.0572172
0.0518042
0.0466529
0.0440688
0.0479285
0.0632296
0.0690781
0.0673156
0.0650804
0.0621468
0.0582846
0.0535314
0.0485613
0.0453378
0.0475119
0.0601153
0.173036
0.16294
0.153514
0.14479
0.136747
0.129392
0.122728
0.116741
0.111427
0.10676
0.102707
0.0992113
0.0962067
0.0935862
0.0912396
0.089008
0.0867558
0.0843626
0.0817652
0.0789857
0.173213
0.163416
0.154332
0.145972
0.138327
0.131401
0.125186
0.119678
0.114876
0.110751
0.107292
0.104461
0.102212
0.100462
0.099136
0.0981172
0.0972713
0.0964509
0.0954759
0.0942146
0.17361
0.16397
0.155074
0.146905
0.13947
0.132763
0.12678
0.121516
0.116943
0.113061
0.109827
0.107215
0.105164
0.103633
0.102527
0.101759
0.101202
0.100708
0.10013
0.0992553
0.17431
0.164735
0.155897
0.1478
0.140449
0.133814
0.12791
0.122714
0.118195
0.114334
0.111103
0.10844
0.1063
0.104611
0.103289
0.102217
0.101299
0.100379
0.0993047
0.0978881
0.175298
0.165708
0.156866
0.148761
0.141388
0.134734
0.128791
0.12353
0.118934
0.11495
0.11156
0.10868
0.106266
0.104235
0.102471
0.100872
0.099304
0.0976311
0.0957069
0.093368
0.176515
0.16687
0.157959
0.149781
0.142327
0.135571
0.129501
0.124093
0.119308
0.115104
0.111423
0.108214
0.105413
0.102916
0.100636
0.098432
0.096183
0.0937423
0.0909847
0.0878087
0.177881
0.168132
0.159113
0.150819
0.143238
0.136333
0.130086
0.12445
0.119403
0.11488
0.110841
0.107205
0.103914
0.100902
0.0980476
0.0952597
0.0924134
0.0893913
0.0860893
0.0824464
0.17929
0.169413
0.160259
0.151823
0.144079
0.136986
0.130521
0.124627
0.119269
0.114382
0.109907
0.10579
0.101964
0.0983604
0.094922
0.0915874
0.0882868
0.084978
0.081565
0.0779646
0.180678
0.170628
0.161318
0.152715
0.144793
0.137494
0.130787
0.124621
0.11893
0.113655
0.108741
0.104117
0.0997435
0.095558
0.0915431
0.0877042
0.0840757
0.080704
0.0775938
0.0744544
0.181947
0.171672
0.16219
0.153427
0.14532
0.137822
0.130867
0.124408
0.11839
0.11274
0.107396
0.102325
0.0974606
0.0927904
0.088332
0.0841413
0.0803
0.0768882
0.0738723
0.0712674
0.182738
0.172637
0.163256
0.154516
0.146365
0.138766
0.131657
0.124974
0.118684
0.112716
0.107016
0.101548
0.0962852
0.091229
0.0864469
0.0820109
0.0780259
0.0745564
0.0715935
0.0691453
0.183256
0.17362
0.164534
0.156001
0.147968
0.140392
0.133238
0.126451
0.119988
0.113806
0.107859
0.102116
0.0965712
0.0912712
0.0862901
0.0817261
0.0777042
0.0742684
0.0713747
0.0688818
0.183663
0.174403
0.165618
0.157278
0.149375
0.141858
0.134698
0.127849
0.121261
0.114923
0.108778
0.102836
0.0971052
0.0916412
0.0865398
0.0819352
0.0779088
0.074486
0.0715738
0.0689403
0.183894
0.174979
0.166465
0.158345
0.150579
0.143143
0.136003
0.129123
0.122471
0.116021
0.109751
0.103688
0.0978333
0.0922898
0.0871641
0.0825705
0.0785824
0.0751787
0.0722149
0.0694414
0.1839
0.175307
0.167074
0.159164
0.151562
0.144226
0.137139
0.130262
0.123575
0.117071
0.110742
0.104613
0.0987284
0.093175
0.0880892
0.0835543
0.0796375
0.0762715
0.0732624
0.0703654
0.183659
0.175381
0.167415
0.159726
0.152281
0.145071
0.138056
0.131224
0.124554
0.118049
0.111714
0.105586
0.0997212
0.094233
0.0892303
0.0848081
0.0809939
0.0776695
0.0746254
0.0716199
0.183152
0.175182
0.167478
0.160008
0.152739
0.145668
0.138751
0.131992
0.125378
0.118912
0.112617
0.106532
0.100752
0.0953704
0.0905135
0.0862435
0.082539
0.0792684
0.0761995
0.0730892
0.182348
0.174685
0.167237
0.15999
0.152916
0.145986
0.1392
0.132538
0.126006
0.119612
0.1134
0.107425
0.10177
0.0965438
0.0918554
0.0877427
0.0841684
0.0809661
0.0778927
0.0746947
0.181257
0.173882
0.16669
0.159671
0.152788
0.146017
0.139372
0.13283
0.12641
0.120139
0.114048
0.108199
0.102705
0.0976605
0.0931738
0.0892488
0.0858169
0.0826749
0.0795988
0.0763433
0.179855
0.172766
0.165831
0.159022
0.152336
0.145751
0.139255
0.132861
0.126582
0.120443
0.114498
0.108824
0.103516
0.0986779
0.0943974
0.0906657
0.0873778
0.084322
0.0812513
0.0779639
0.178133
0.171316
0.164629
0.158051
0.151565
0.14516
0.13883
0.1326
0.12647
0.120496
0.11472
0.10924
0.10414
0.0995229
0.0954649
0.091927
0.0887833
0.0858204
0.0827747
0.0794714
0.176093
0.169536
0.163094
0.156739
0.150454
0.144234
0.138084
0.132024
0.126076
0.120281
0.114694
0.109415
0.104533
0.100151
0.0963142
0.0929753
0.0899832
0.0871086
0.0841159
0.0808097
0.173733
0.167422
0.161212
0.15507
0.148988
0.142965
0.137009
0.131131
0.125368
0.119764
0.114385
0.109321
0.104668
0.100527
0.0969114
0.0937613
0.0909143
0.0881404
0.0852049
0.0819328
0.171031
0.164962
0.158974
0.153052
0.147175
0.14134
0.135579
0.129887
0.124321
0.118927
0.113753
0.10892
0.104506
0.100591
0.0972003
0.0942528
0.0915498
0.088884
0.0860144
0.0827863
0.16799
0.162159
0.15639
0.150669
0.144985
0.13936
0.133786
0.1283
0.122941
0.117747
0.112796
0.108187
0.104013
0.100331
0.0971611
0.0943939
0.0918481
0.0892923
0.0865003
0.0833376
0.164615
0.158989
0.153426
0.147914
0.142434
0.137009
0.131633
0.126353
0.121192
0.116216
0.111495
0.107114
0.10317
0.0997209
0.0967698
0.0941841
0.0917925
0.0893419
0.0866416
0.0835565
0.160885
0.15547
0.15011
0.144796
0.139509
0.134274
0.129106
0.124023
0.119079
0.11432
0.109814
0.105676
0.101965
0.0987485
0.0959975
0.0935975
0.0913503
0.0890227
0.0864198
0.0834248
0.156818
0.15159
0.146422
0.141294
0.13621
0.131165
0.126195
0.12132
0.116592
0.112048
0.107775
0.103854
0.100379
0.0973773
0.0948398
0.0926125
0.0905225
0.088318
0.0858294
0.0829272
0.152387
0.147344
0.142365
0.137422
0.132521
0.127675
0.122904
0.118236
0.113714
0.109393
0.105351
0.101662
0.0984073
0.0956346
0.0932862
0.0912411
0.0892935
0.0872335
0.084847
0.0820503
0.147616
0.142735
0.137923
0.133165
0.128456
0.123801
0.119229
0.114768
0.11046
0.106363
0.102538
0.0990785
0.0960491
0.0934912
0.0913396
0.0894783
0.0876802
0.0857479
0.0834919
0.0808132
0.0676991
0.0658558
0.0632905
0.0596715
0.0550825
0.049949
0.0448182
0.0400971
0.0360104
0.0325795
0.0668553
0.0651837
0.0628007
0.0591523
0.0545172
0.0494463
0.0444612
0.0399284
0.0359937
0.0326458
0.0666308
0.0647946
0.0623462
0.0587352
0.0541998
0.0492806
0.0444836
0.0401114
0.036289
0.0329576
0.0670172
0.064914
0.0621925
0.0585412
0.054135
0.0494155
0.0448143
0.0406066
0.0368536
0.0335026
0.067829
0.0654505
0.0624141
0.058663
0.0543434
0.0498128
0.0454007
0.0413309
0.0376367
0.0342346
0.0689365
0.0662989
0.0629889
0.0590964
0.0548184
0.0504356
0.0461986
0.042255
0.0385952
0.0351179
0.0702531
0.0673795
0.0638357
0.059815
0.0555381
0.0512581
0.0471594
0.0433089
0.0396684
0.0361211
0.0717002
0.0685926
0.0648674
0.0607313
0.0564443
0.0522316
0.0482253
0.0444462
0.0408113
0.0371904
0.0731987
0.0698893
0.0660001
0.0617744
0.0574782
0.0533101
0.0493734
0.0456371
0.0419968
0.0383009
0.0746771
0.0711786
0.0671596
0.0628648
0.0585647
0.054423
0.0505279
0.04682
0.0431672
0.039408
0.0760765
0.0724124
0.0682855
0.0639482
0.0596354
0.0555277
0.0516618
0.0479638
0.0442859
0.0404688
0.0773248
0.073529
0.0693241
0.0649482
0.0606406
0.0565515
0.0527089
0.0490178
0.0453277
0.0414524
0.0783885
0.0744751
0.0702107
0.0658276
0.0615306
0.0574717
0.0536437
0.0499632
0.0462491
0.0423301
0.0792043
0.0752175
0.0709204
0.0665297
0.0622665
0.0582274
0.0544226
0.0507531
0.0470293
0.0430759
0.0797501
0.0757134
0.0714096
0.067039
0.062801
0.058799
0.0550236
0.0513626
0.0476296
0.0436567
0.0799856
0.075942
0.0716457
0.0673114
0.0631184
0.0591591
0.055417
0.0517691
0.0480339
0.0440519
0.0799023
0.075864
0.0716081
0.0673248
0.0631948
0.0592819
0.0555751
0.0519524
0.0482285
0.0442536
0.0794741
0.075482
0.0712782
0.067069
0.0629984
0.059154
0.0554923
0.0518941
0.048202
0.0442266
0.0786969
0.0747808
0.0706591
0.0665256
0.0625393
0.0587538
0.0551449
0.0515881
0.0479152
0.043968
0.0775688
0.073757
0.0697361
0.0657083
0.0617996
0.0580914
0.0545412
0.0510204
0.0473911
0.0434673
)
;

boundaryField
{
    down
    {
        type            symmetryPlane;
    }
    right
    {
        type            calculated;
        value           uniform 0;
    }
    up
    {
        type            symmetryPlane;
    }
    left
    {
        type            calculated;
        value           nonuniform List<scalar> 
30
(
0.173036
0.173213
0.17361
0.17431
0.175298
0.176515
0.177881
0.17929
0.180678
0.181947
0.182738
0.183256
0.183663
0.183894
0.1839
0.183659
0.183152
0.182348
0.181257
0.179855
0.178133
0.176093
0.173733
0.171031
0.16799
0.164615
0.160885
0.156818
0.152387
0.147616
)
;
    }
    cylinder
    {
        type            symmetry;
    }
    defaultFaces
    {
        type            empty;
    }
}


// ************************************************************************* //
