/*--------------------------------*- C++ -*----------------------------------*\
| =========                 |                                                 |
| \\      /  F ield         | OpenFOAM: The Open Source CFD Toolbox           |
|  \\    /   O peration     | Version:  2112                                  |
|   \\  /    A nd           | Website:  www.openfoam.com                      |
|    \\/     M anipulation  |                                                 |
\*---------------------------------------------------------------------------*/
FoamFile
{
    version     2.0;
    format      ascii;
    arch        "LSB;label=32;scalar=64";
    class       volScalarField;
    location    "0";
    object      Phi_nn;
}
// * * * * * * * * * * * * * * * * * * * * * * * * * * * * * * * * * * * * * //

dimensions      [0 2 -1 0 0 0 0];

internalField   nonuniform List<scalar> 
2000
(
1.49759
1.47488
1.4569
1.44089
1.42498
1.40793
1.38904
1.36812
1.34537
1.32115
1.55243
1.53283
1.5175
1.50366
1.48941
1.4736
1.45576
1.43593
1.41448
1.39183
1.61144
1.5954
1.58307
1.5716
1.5591
1.54464
1.52801
1.5095
1.48961
1.46879
1.67453
1.66239
1.65325
1.64419
1.63348
1.62044
1.6052
1.58828
1.57025
1.55158
1.74139
1.73328
1.72732
1.7206
1.71163
1.70012
1.68651
1.6715
1.65569
1.63947
1.8115
1.80734
1.80437
1.79982
1.79257
1.78276
1.7711
1.75836
1.74509
1.73159
1.88422
1.8837
1.88341
1.88087
1.87541
1.86755
1.85818
1.84804
1.83758
1.82699
1.95883
1.9615
1.96357
1.96293
1.95941
1.95381
1.94706
1.93979
1.93232
1.92474
2.03467
2.04003
2.04414
2.0454
2.04402
2.04094
2.03705
2.03281
2.02843
2.02394
2.11119
2.11872
2.12463
2.1278
2.12872
2.12837
2.12746
2.12634
2.12511
2.12375
1.19775
1.1277
1.0746
1.03566
1.00646
0.981971
0.958036
0.932613
0.905675
0.877942
1.198
1.13713
1.09292
1.06082
1.03522
1.01128
0.986355
0.960009
0.932747
0.904746
1.20845
1.15608
1.11896
1.09117
1.06702
1.04285
1.01755
0.991304
0.964213
0.935848
1.22723
1.18202
1.14993
1.12454
1.10095
1.0769
1.05206
1.02641
0.999516
0.970715
1.25263
1.213
1.18422
1.16018
1.13713
1.11377
1.08982
1.06483
1.03811
1.00903
1.2833
1.24782
1.2212
1.19815
1.17592
1.15358
1.13059
1.10621
1.07972
1.05071
1.31836
1.28596
1.26094
1.23889
1.21771
1.19645
1.17433
1.15052
1.12442
1.09587
1.35737
1.32743
1.30384
1.28294
1.26292
1.24271
1.22137
1.19814
1.17263
1.14485
1.40019
1.37249
1.35044
1.33091
1.31214
1.29293
1.27234
1.24976
1.225
1.19824
1.44688
1.42152
1.40131
1.38339
1.36597
1.3478
1.32801
1.30618
1.28234
1.25676
0.849475
0.819639
0.788189
0.754493
0.718253
0.679515
0.638574
0.595867
0.551897
0.507179
0.462203
0.417411
0.373188
0.329846
0.287633
0.246734
0.207284
0.169381
0.133101
0.0985102
0.874586
0.841629
0.806768
0.769737
0.730526
0.689319
0.64643
0.602244
0.557171
0.511628
0.46601
0.420683
0.37597
0.332146
0.289436
0.248021
0.208043
0.169614
0.132827
0.097771
0.903606
0.867235
0.828997
0.78886
0.746941
0.70346
0.658698
0.612972
0.566618
0.519973
0.473366
0.427109
0.38149
0.336761
0.293143
0.250821
0.20995
0.17066
0.133068
0.0972799
0.936386
0.896669
0.85527
0.81227
0.767827
0.72215
0.675477
0.628065
0.580189
0.532131
0.484174
0.436596
0.389664
0.343626
0.298704
0.255097
0.212979
0.172504
0.133811
0.0970285
0.972896
0.930072
0.885776
0.840125
0.793276
0.745412
0.69673
0.647445
0.597786
0.547997
0.498334
0.449057
0.400424
0.352686
0.306079
0.260821
0.217112
0.175132
0.135046
0.0970096
1.01314
0.967459
0.920504
0.872372
0.823194
0.77312
0.722316
0.670964
0.619266
0.567445
0.515739
0.464404
0.4137
0.363891
0.315232
0.267969
0.222329
0.178528
0.136762
0.0972158
1.05716
1.00876
0.959296
0.908798
0.85734
0.80503
0.752001
0.698412
0.644447
0.590318
0.536262
0.482538
0.429417
0.377184
0.326121
0.276507
0.228607
0.182675
0.138945
0.0976373
1.1051
1.0539
1.00193
0.949092
0.895369
0.840799
0.785469
0.72951
0.673093
0.616426
0.559751
0.503339
0.447484
0.392496
0.338695
0.286397
0.235916
0.187548
0.141577
0.0982618
1.1573
1.10292
1.04823
0.992938
0.936894
0.880024
0.822338
0.76392
0.704918
0.645534
0.586019
0.526664
0.46779
0.409744
0.352888
0.29759
0.244215
0.193118
0.144634
0.0990742
1.21431
1.15607
1.09817
1.04012
0.981572
0.922301
0.862198
0.801262
0.73959
0.677367
0.614846
0.552338
0.4902
0.428824
0.368623
0.310025
0.25346
0.199348
0.14809
0.100057
1.25059
1.18936
1.129
1.06892
1.00864
0.947821
0.886237
0.823806
0.760566
0.69667
0.632365
0.567969
0.503861
0.440462
0.378223
0.317611
0.259099
0.203152
0.150215
0.100699
1.26255
1.20001
1.13853
1.07754
1.01653
0.955124
0.893038
0.830144
0.766445
0.702068
0.637248
0.572304
0.507622
0.443635
0.380807
0.31962
0.260562
0.204115
0.150738
0.10085
1.27374
1.2101
1.14762
1.08577
1.02406
0.962057
0.899473
0.836131
0.771997
0.707172
0.641874
0.576419
0.511199
0.446657
0.383271
0.321541
0.261969
0.205052
0.15126
0.101024
1.28435
1.21976
1.15637
1.09369
1.03125
0.968644
0.905546
0.841753
0.777196
0.711947
0.646205
0.580277
0.514557
0.449497
0.385591
0.323352
0.263301
0.205946
0.151772
0.101214
1.29447
1.22904
1.1648
1.1013
1.03814
0.9749
0.911266
0.847009
0.782033
0.716378
0.65022
0.583855
0.517673
0.452136
0.387747
0.325038
0.264545
0.206789
0.152263
0.10141
1.30409
1.23793
1.1729
1.10862
1.04472
0.980837
0.916646
0.85191
0.786511
0.720461
0.653912
0.587142
0.520537
0.45456
0.38973
0.326591
0.265693
0.207571
0.152728
0.10161
1.31317
1.24639
1.18063
1.11561
1.051
0.986458
0.921694
0.856466
0.79064
0.724203
0.657282
0.590136
0.523143
0.456767
0.391534
0.328004
0.26674
0.20829
0.153163
0.101807
1.32166
1.25434
1.18795
1.12224
1.05694
0.991754
0.926412
0.860685
0.794427
0.727609
0.660334
0.592841
0.525493
0.458755
0.39316
0.329277
0.267685
0.208943
0.153564
0.102
1.32949
1.26175
1.1948
1.12847
1.06252
0.996708
0.930795
0.864567
0.797879
0.730687
0.663074
0.595259
0.527591
0.460528
0.394608
0.330412
0.26853
0.20953
0.153932
0.102186
1.33663
1.26855
1.20114
1.13425
1.0677
1.0013
0.934831
0.868108
0.800994
0.733438
0.665504
0.597393
0.529437
0.462087
0.395882
0.331411
0.269275
0.210051
0.154265
0.102365
1.34306
1.27473
1.20693
1.13955
1.07246
1.0055
0.938501
0.871298
0.803767
0.735858
0.667622
0.599242
0.531031
0.463432
0.396982
0.332276
0.269922
0.210509
0.154563
0.102534
1.34877
1.28027
1.21215
1.14435
1.07677
1.00929
0.941787
0.874121
0.806187
0.737938
0.66942
0.600797
0.532368
0.46456
0.397906
0.333004
0.270472
0.210901
0.154825
0.10269
1.35378
1.28516
1.21678
1.14861
1.0806
1.01265
0.94467
0.876562
0.80824
0.739668
0.670888
0.60205
0.533437
0.465462
0.398648
0.333593
0.27092
0.211227
0.155049
0.102831
1.35812
1.28941
1.22082
1.15235
1.08394
1.01556
0.947134
0.878606
0.809913
0.741033
0.67201
0.602986
0.534225
0.466125
0.399197
0.334034
0.271261
0.21148
0.155229
0.102952
1.3618
1.29304
1.22429
1.15554
1.08678
1.018
0.949167
0.88024
0.811193
0.742021
0.672774
0.603588
0.534715
0.466532
0.399537
0.334314
0.271484
0.211653
0.155359
0.103045
1.36487
1.29607
1.22718
1.1582
1.08913
1.01998
0.950762
0.881458
0.812071
0.74262
0.673165
0.603842
0.534889
0.466666
0.399652
0.334417
0.271577
0.211734
0.155429
0.103103
1.36737
1.29854
1.22953
1.16033
1.09098
1.0215
0.951915
0.882252
0.812541
0.742823
0.673174
0.603733
0.534729
0.466505
0.399519
0.334323
0.271521
0.211709
0.155428
0.103115
1.36935
1.30048
1.23135
1.16196
1.09235
1.02255
0.952627
0.882624
0.812601
0.742627
0.672795
0.603252
0.534222
0.466033
0.399119
0.334012
0.271297
0.211561
0.155339
0.103068
1.37086
1.30192
1.23267
1.1631
1.09324
1.02315
0.952903
0.882574
0.812252
0.742029
0.672024
0.602391
0.533357
0.465233
0.398432
0.333461
0.270883
0.21127
0.155147
0.102948
1.37193
1.30291
1.23352
1.16377
1.09367
1.0233
0.952748
0.882109
0.811497
0.741035
0.670862
0.60115
0.532126
0.464092
0.397441
0.332651
0.270258
0.210814
0.154832
0.102739
2.12357
2.02339
1.92384
1.82569
1.7298
1.63707
1.54846
1.46486
1.387
1.31534
2.12453
2.02664
1.92937
1.8334
1.73944
1.64829
1.56081
1.47786
1.40017
1.32826
2.12518
2.02941
1.93428
1.84036
1.74827
1.65867
1.57232
1.49002
1.41248
1.34028
2.12555
2.03175
1.9386
1.84662
1.75631
1.66823
1.58303
1.50142
1.42409
1.35162
2.12566
2.03367
1.94237
1.8522
1.76358
1.67698
1.59295
1.51209
1.43504
1.36237
2.12556
2.03524
1.94565
1.85715
1.77013
1.68495
1.60206
1.52199
1.44529
1.37252
2.12528
2.03651
1.94848
1.86154
1.77599
1.69215
1.61038
1.53111
1.45483
1.38203
2.12487
2.03751
1.95092
1.86541
1.78123
1.69865
1.61793
1.53945
1.4636
1.39084
2.12437
2.03831
1.95304
1.86883
1.78591
1.70448
1.62475
1.54701
1.47161
1.39892
2.12382
2.03895
1.95488
1.87187
1.79009
1.7097
1.63088
1.55383
1.47885
1.40625
2.12326
2.03948
1.95651
1.87457
1.79382
1.71438
1.63637
1.55996
1.48535
1.41281
2.12274
2.03995
1.95797
1.877
1.79718
1.71858
1.64129
1.56543
1.49114
1.41864
2.12228
2.04039
1.95932
1.87922
1.80021
1.72236
1.6457
1.5703
1.49627
1.42376
2.12191
2.04085
1.96059
1.88127
1.80299
1.72577
1.64965
1.57463
1.50078
1.4282
2.12168
2.04136
1.96182
1.8832
1.80555
1.72889
1.6532
1.57848
1.50473
1.43202
2.12159
2.04195
1.96307
1.88506
1.80795
1.73175
1.65642
1.5819
1.50817
1.43525
2.12167
2.04265
1.96436
1.88688
1.81025
1.73442
1.65935
1.58495
1.51116
1.43795
2.12195
2.04349
1.96572
1.88871
1.81247
1.73695
1.66205
1.58769
1.51375
1.44017
2.12244
2.04448
1.96717
1.89058
1.81466
1.73937
1.66458
1.59016
1.516
1.44197
2.12316
2.04565
1.96876
1.89251
1.81686
1.74173
1.66697
1.59243
1.51796
1.4434
3.02079
2.99594
2.9725
2.95092
2.93173
2.91538
2.90191
2.89038
2.87831
2.86196
2.94481
2.92173
2.89975
2.87927
2.86078
2.84478
2.83149
2.82037
2.80947
2.79547
2.86474
2.84368
2.82343
2.80432
2.78676
2.77122
2.75802
2.74688
2.73639
2.72388
2.78134
2.76253
2.74427
2.72681
2.71049
2.69572
2.68278
2.67153
2.66098
2.64917
2.69498
2.67861
2.66256
2.64705
2.63233
2.61871
2.6064
2.59525
2.58451
2.57288
2.60575
2.59199
2.57839
2.56512
2.55235
2.54031
2.52906
2.51838
2.50761
2.49597
2.51369
2.50272
2.4918
2.48103
2.47056
2.46048
2.45074
2.44096
2.43048
2.41893
2.41899
2.41097
2.40291
2.39489
2.387
2.37924
2.3714
2.36291
2.3531
2.34192
2.32201
2.31708
2.31204
2.30696
2.30188
2.2967
2.29104
2.28416
2.27537
2.26496
2.22336
2.22157
2.21965
2.21764
2.21552
2.21308
2.20977
2.2047
2.19723
2.18802
3.42649
3.39176
3.35783
3.32422
3.29037
3.25569
3.21964
3.18173
3.14156
3.09872
3.40226
3.36759
3.33473
3.30326
3.27253
3.24168
3.20981
3.17605
3.1396
3.09974
3.38075
3.34586
3.31333
3.28306
3.25453
3.22681
3.19865
3.1687
3.13569
3.09849
3.35866
3.32411
3.29196
3.26245
3.23541
3.21005
3.18499
3.15845
3.12858
3.0938
3.33263
3.29916
3.26794
3.23936
3.21352
3.18996
3.1674
3.1438
3.11681
3.08427
3.3003
3.26836
3.23854
3.21123
3.1867
3.16472
3.14424
3.12319
3.09884
3.06851
3.26034
3.22999
3.20168
3.17583
3.15274
3.13233
3.11374
3.09502
3.07322
3.0452
3.21213
3.1832
3.15627
3.13176
3.11005
3.09114
3.07438
3.05791
3.03871
3.01327
3.15566
3.12801
3.10224
3.07883
3.05821
3.04056
3.02538
3.01103
2.9945
2.97201
3.09151
3.06516
3.0405
3.018
2.99818
2.98135
2.9673
2.95468
2.94066
2.92132
4.24765
4.20815
4.16821
4.12783
4.08703
4.04583
4.00423
3.96227
3.91997
3.87739
3.83458
3.79164
3.74867
3.70583
3.6633
3.62128
3.58
3.53969
3.50051
3.46259
4.24685
4.20671
4.16611
4.12504
4.08351
4.04155
3.99916
3.95638
3.91323
3.86976
3.82601
3.78205
3.73797
3.69388
3.64992
3.60628
3.56317
3.52083
3.47953
3.43956
4.2452
4.20426
4.16283
4.12091
4.07851
4.03566
3.99237
3.94867
3.90461
3.86021
3.81553
3.77064
3.72563
3.68058
3.63562
3.59092
3.54666
3.50306
3.4604
3.41897
4.24266
4.2007
4.15822
4.11525
4.07179
4.02787
3.9835
3.93873
3.89359
3.84813
3.80241
3.7565
3.71049
3.66448
3.61859
3.57297
3.5278
3.48328
3.43966
3.3972
4.23927
4.19604
4.15229
4.10804
4.06329
4.01808
3.97242
3.92636
3.87995
3.83323
3.78628
3.73917
3.69199
3.64486
3.59788
3.55121
3.50501
3.45946
3.41477
3.37117
4.23514
4.19039
4.14512
4.09934
4.05306
4.00632
3.95914
3.91157
3.86365
3.81546
3.76705
3.71851
3.66993
3.62141
3.57308
3.52507
3.47751
3.43055
3.38434
3.339
4.23038
4.18387
4.13683
4.08927
4.04122
3.99271
3.94376
3.89444
3.84479
3.79487
3.74476
3.69453
3.64429
3.59411
3.5441
3.49437
3.44501
3.39609
3.34766
3.29971
4.22514
4.17662
4.12756
4.07799
4.02792
3.97739
3.92645
3.87513
3.8235
3.77162
3.71955
3.66738
3.61518
3.56302
3.51098
3.4591
3.40741
3.35588
3.30442
3.25284
4.21955
4.16878
4.11747
4.06564
4.01333
3.96056
3.90737
3.85383
3.79998
3.74589
3.69161
3.63721
3.58276
3.52828
3.47381
3.41931
3.36469
3.30982
3.25444
3.19825
4.21374
4.1605
4.10671
4.0524
3.99761
3.94237
3.88672
3.83072
3.77442
3.71787
3.66112
3.60423
3.5472
3.49004
3.43269
3.37502
3.31683
3.25785
3.19777
3.13624
4.20859
4.15388
4.09864
4.0429
3.98669
3.93005
3.87302
3.81565
3.75797
3.70002
3.64185
3.58347
3.52486
3.46597
3.40666
3.34674
3.28593
3.22395
3.16052
3.09538
4.20429
4.14923
4.09367
4.03763
3.98115
3.92427
3.86701
3.80942
3.75152
3.69334
3.6349
3.57618
3.51715
3.4577
3.39767
3.33683
3.27493
3.21169
3.14694
3.08054
4.20015
4.14473
4.08883
4.03249
3.97574
3.91859
3.86109
3.80326
3.74512
3.68668
3.62793
3.56885
3.50937
3.44937
3.38865
3.32698
3.26413
3.19989
3.13417
3.06693
4.19622
4.14044
4.08421
4.02757
3.97052
3.91311
3.85535
3.79726
3.73885
3.68012
3.62105
3.56159
3.50166
3.4411
3.37973
3.31731
3.25365
3.18861
3.12218
3.0544
4.19256
4.13643
4.07988
4.02292
3.96558
3.90788
3.84985
3.79149
3.7328
3.67376
3.61435
3.5545
3.4941
3.43301
3.37101
3.30792
3.24356
3.17789
3.11094
3.04282
4.18923
4.13276
4.07587
4.0186
3.96097
3.90299
3.84467
3.78603
3.72704
3.66768
3.60792
3.54766
3.48681
3.42519
3.36261
3.2989
3.23396
3.16777
3.10044
3.03213
4.18628
4.12947
4.07226
4.01468
3.95675
3.89848
3.83988
3.78094
3.72164
3.66196
3.60183
3.54118
3.47987
3.41774
3.35462
3.29036
3.2249
3.1583
3.0907
3.02227
4.18374
4.1266
4.06908
4.0112
3.95297
3.89441
3.83552
3.77628
3.71667
3.65666
3.59617
3.53511
3.47336
3.41075
3.34711
3.28236
3.21646
3.14952
3.08172
3.01323
4.18166
4.12421
4.06638
4.0082
3.94968
3.89083
3.83165
3.77211
3.71219
3.65184
3.59099
3.52954
3.46736
3.40428
3.34018
3.27497
3.20869
3.14148
3.07351
3.00499
4.18007
4.12231
4.06419
4.00572
3.94691
3.88778
3.8283
3.76847
3.70824
3.64756
3.58635
3.52452
3.46191
3.3984
3.33386
3.26825
3.20164
3.13419
3.0661
2.99756
4.17901
4.12095
4.06254
4.00379
3.94471
3.88529
3.82553
3.7654
3.70486
3.64385
3.5823
3.52009
3.45709
3.39317
3.32823
3.26225
3.19535
3.12769
3.0595
2.99094
4.17849
4.12015
4.06147
4.00244
3.94309
3.8834
3.82336
3.76294
3.70209
3.64077
3.57888
3.51631
3.45293
3.38862
3.32331
3.257
3.18984
3.122
3.05371
2.98514
4.17854
4.11994
4.06099
4.0017
3.94208
3.88212
3.82181
3.76111
3.69997
3.63834
3.57612
3.5132
3.44946
3.38479
3.31914
3.25254
3.18514
3.11714
3.04877
2.98017
4.17918
4.12033
4.06113
4.00159
3.94172
3.8815
3.82092
3.75994
3.69852
3.63658
3.57405
3.5108
3.44672
3.38172
3.31575
3.24888
3.18126
3.11312
3.04466
2.97602
4.18043
4.12134
4.0619
4.00212
3.942
3.88154
3.8207
3.75946
3.69776
3.63553
3.57269
3.50913
3.44474
3.37942
3.31316
3.24604
3.17822
3.10994
3.04139
2.97271
4.1823
4.12299
4.06332
4.00332
3.94297
3.88226
3.82118
3.75968
3.69771
3.6352
3.57208
3.50822
3.44352
3.37791
3.31138
3.24403
3.17603
3.10761
3.03897
2.97023
4.18482
4.12529
4.06541
4.00518
3.94461
3.88368
3.82235
3.76061
3.69838
3.63561
3.57221
3.50806
3.44308
3.3772
3.31042
3.24285
3.17468
3.10613
3.03739
2.96859
4.18797
4.12825
4.06817
4.00774
3.94695
3.8858
3.82424
3.76226
3.69979
3.63676
3.57309
3.50869
3.44344
3.3773
3.31029
3.24252
3.17418
3.10549
3.03665
2.96776
4.19178
4.13188
4.07161
4.01098
3.94999
3.88862
3.82686
3.76464
3.70194
3.63867
3.57475
3.51009
3.44459
3.37822
3.31098
3.24302
3.17452
3.1057
3.03674
2.96776
4.19625
4.13618
4.07573
4.01491
3.95373
3.89217
3.83019
3.76776
3.70483
3.64133
3.57717
3.51227
3.44654
3.37994
3.3125
3.24435
3.17569
3.10673
3.03766
2.96857
3.02556
2.94904
2.86854
2.78473
2.69792
2.60818
2.51557
2.42029
2.32277
2.22362
3.01034
2.93467
2.85538
2.77298
2.68766
2.59948
2.50852
2.41501
2.31942
2.22235
2.99661
2.92168
2.84342
2.76221
2.67818
2.59136
2.50186
2.40995
2.31611
2.22096
2.98409
2.90981
2.83244
2.75225
2.66933
2.5837
2.49552
2.40506
2.31284
2.21945
2.97261
2.89888
2.82227
2.74296
2.66101
2.57646
2.48946
2.40034
2.30959
2.21783
2.96204
2.88878
2.81281
2.73426
2.65317
2.56958
2.48367
2.39577
2.30639
2.21612
2.95232
2.87944
2.80401
2.72613
2.64579
2.56307
2.47815
2.39138
2.30326
2.21437
2.94339
2.87082
2.79584
2.71852
2.63886
2.55692
2.4729
2.38717
2.30022
2.2126
2.93524
2.86289
2.78828
2.71144
2.63236
2.55113
2.46795
2.38317
2.29729
2.21085
2.92786
2.85565
2.78132
2.70488
2.62632
2.54572
2.46329
2.3794
2.29451
2.20915
2.92125
2.8491
2.77496
2.69884
2.62072
2.54069
2.45896
2.37588
2.2919
2.20754
2.91542
2.84323
2.76922
2.69334
2.6156
2.53607
2.45496
2.37262
2.28949
2.20605
2.91035
2.83805
2.76408
2.68838
2.61095
2.53186
2.45132
2.36966
2.2873
2.2047
2.90607
2.83357
2.75956
2.68397
2.60678
2.52807
2.44804
2.367
2.28535
2.20352
2.90256
2.82979
2.75566
2.68011
2.60311
2.52472
2.44514
2.36466
2.28366
2.20254
2.89983
2.8267
2.75238
2.67681
2.59993
2.52181
2.44262
2.36265
2.28225
2.20178
2.89789
2.82431
2.74973
2.67407
2.59726
2.51935
2.4405
2.36099
2.28112
2.20125
2.89672
2.82261
2.7477
2.67188
2.59508
2.51734
2.43879
2.35968
2.2803
2.20096
2.89631
2.8216
2.74629
2.67025
2.59341
2.51578
2.43748
2.35872
2.27978
2.20094
2.89667
2.82127
2.74549
2.66918
2.59224
2.51467
2.43657
2.35813
2.27959
2.20119
)
;

boundaryField
{
    down
    {
        type            symmetryPlane;
    }
    right
    {
        type            fixedValue;
        value           uniform 0;
    }
    up
    {
        type            symmetryPlane;
    }
    left
    {
        type            zeroGradient;
    }
    cylinder
    {
        type            symmetry;
    }
    defaultFaces
    {
        type            empty;
    }
}


// ************************************************************************* //
