/*--------------------------------*- C++ -*----------------------------------*\
| =========                 |                                                 |
| \\      /  F ield         | OpenFOAM: The Open Source CFD Toolbox           |
|  \\    /   O peration     | Version:  2112                                  |
|   \\  /    A nd           | Website:  www.openfoam.com                      |
|    \\/     M anipulation  |                                                 |
\*---------------------------------------------------------------------------*/
FoamFile
{
    version     2.0;
    format      ascii;
    arch        "LSB;label=32;scalar=64";
    class       volVectorField;
    location    "0";
    object      U_nn;
}
// * * * * * * * * * * * * * * * * * * * * * * * * * * * * * * * * * * * * * //

dimensions      [0 1 -1 0 0 0 0];

internalField   nonuniform List<vector> 
2000
(
(1.10884 -0.917736 0.00910954)
(1.11519 -0.803598 0.00776561)
(1.11526 -0.690874 0.00676519)
(1.10942 -0.586916 0.00580068)
(1.09914 -0.498599 0.0049031)
(1.08653 -0.428617 0.00419158)
(1.07369 -0.3753 0.00371936)
(1.06221 -0.334694 0.00346034)
(1.05299 -0.302668 0.00335036)
(1.04631 -0.276019 0.00332306)
(1.2262 -0.927131 0.0106779)
(1.22806 -0.803594 0.00879734)
(1.21866 -0.683934 0.00726832)
(1.2009 -0.577829 0.00595874)
(1.17841 -0.491294 0.00492786)
(1.15473 -0.424785 0.00421719)
(1.13262 -0.374789 0.00379117)
(1.11375 -0.336516 0.00357041)
(1.09879 -0.305773 0.00347289)
(1.08768 -0.279641 0.00343495)
(1.34214 -0.910406 0.0118784)
(1.3385 -0.779674 0.00942876)
(1.31886 -0.65694 0.00747948)
(1.28884 -0.552667 0.00598823)
(1.25428 -0.470954 0.00495859)
(1.22005 -0.409809 0.00432572)
(1.18939 -0.364171 0.00397617)
(1.16391 -0.328792 0.00379807)
(1.14395 -0.299679 0.0037079)
(1.12904 -0.274335 0.00365406)
(1.45311 -0.86535 0.0125497)
(1.44288 -0.730951 0.00961431)
(1.41221 -0.609787 0.0074354)
(1.3697 -0.511483 0.00595348)
(1.32341 -0.437411 0.00505167)
(1.27939 -0.383202 0.00455444)
(1.24116 -0.342699 0.00429445)
(1.21009 -0.310618 0.00415255)
(1.18604 -0.283437 0.0040604)
(1.16807 -0.259195 0.00398665)
(1.55531 -0.792481 0.0126309)
(1.53745 -0.659146 0.00940337)
(1.49519 -0.544595 0.00723533)
(1.4403 -0.456117 0.00594638)
(1.38304 -0.391964 0.00526642)
(1.3304 -0.34578 0.00493048)
(1.28592 -0.310902 0.00475207)
(1.25046 -0.282457 0.00463119)
(1.2233 -0.257606 0.00452856)
(1.20299 -0.234987 0.00443731)
(1.64525 -0.695114 0.012179)
(1.61908 -0.568248 0.00892538)
(1.56516 -0.465083 0.00700813)
(1.49862 -0.38951 0.00605159)
(1.43173 -0.33677 0.00563836)
(1.37209 -0.299201 0.00545602)
(1.32289 -0.270279 0.00533735)
(1.2843 -0.245895 0.00522294)
(1.25492 -0.223999 0.00510921)
(1.23283 -0.203794 0.00501165)
(1.7202 -0.57859 0.0113433)
(1.68566 -0.463445 0.00834216)
(1.62081 -0.375493 0.00686576)
(1.5441 -0.3148 0.00631551)
(1.46947 -0.274181 0.00616638)
(1.40469 -0.245479 0.00610917)
(1.35231 -0.222841 0.0060278)
(1.31168 -0.203111 0.00591412)
(1.28078 -0.184995 0.00579769)
(1.25731 -0.16815 0.00570893)
(1.77832 -0.449051 0.0103136)
(1.73623 -0.349925 0.00779664)
(1.66208 -0.279666 0.00687257)
(1.57734 -0.234729 0.00673874)
(1.49718 -0.206356 0.00682001)
(1.4291 -0.186621 0.00685527)
(1.37484 -0.17066 0.00679724)
(1.33298 -0.15627 0.00668749)
(1.30102 -0.142782 0.0065798)
(1.27642 -0.130174 0.00651068)
(1.81863 -0.312312 0.00927014)
(1.77078 -0.232083 0.00738435)
(1.68974 -0.180639 0.00704293)
(1.59953 -0.151484 0.00728964)
(1.51603 -0.135145 0.00755588)
(1.44623 -0.124424 0.00765708)
(1.39105 -0.11553 0.00761689)
(1.3485 -0.107091 0.00751704)
(1.31577 -0.0989068 0.00742524)
(1.29026 -0.0911612 0.00737761)
(1.84072 -0.173201 0.00835665)
(1.78979 -0.11327 0.00715351)
(1.70486 -0.0806788 0.00735927)
(1.61188 -0.0667994 0.00792557)
(1.527 -0.0621174 0.00833208)
(1.45669 -0.060396 0.00848002)
(1.40125 -0.0588444 0.00845506)
(1.35834 -0.0567474 0.00836719)
(1.32503 -0.0542431 0.00829028)
(1.29876 -0.0516567 0.00825707)
(0.182303 -0.359659 0.0127862)
(0.13592 -0.196015 0.00858798)
(0.113755 -0.0872611 0.00504325)
(0.119247 -0.0305388 0.00224715)
(0.152505 -0.0164781 0.000629407)
(0.210322 -0.0306372 0.000603695)
(0.286725 -0.0561888 0.00208179)
(0.373895 -0.0781535 0.00429927)
(0.46347 -0.0877749 0.00623931)
(0.548146 -0.0842013 0.00727332)
(0.241388 -0.381522 0.00935746)
(0.208417 -0.24681 0.0053386)
(0.20209 -0.166653 0.00224025)
(0.223758 -0.132578 0.000381696)
(0.270752 -0.129713 0.000142547)
(0.337137 -0.140394 0.00144307)
(0.415002 -0.149185 0.00353417)
(0.496023 -0.147501 0.00541597)
(0.573103 -0.134868 0.00647602)
(0.64156 -0.115961 0.00669826)
(0.311293 -0.426706 0.00660103)
(0.291753 -0.317047 0.00295299)
(0.299568 -0.257367 0.000619757)
(0.333626 -0.233928 -7.26122e-05)
(0.388682 -0.228547 0.000863406)
(0.456914 -0.224546 0.00275063)
(0.529829 -0.212267 0.00458269)
(0.60012 -0.190769 0.00569034)
(0.662946 -0.164662 0.00600969)
(0.71616 -0.13923 0.00583597)
(0.390444 -0.488045 0.00460603)
(0.382935 -0.397078 0.00154442)
(0.40164 -0.348074 0.000152173)
(0.443136 -0.323783 0.000493285)
(0.500345 -0.306195 0.00203662)
(0.564738 -0.28343 0.00379177)
(0.628551 -0.252924 0.0049696)
(0.686377 -0.218846 0.00539002)
(0.735618 -0.186696 0.00530611)
(0.775932 -0.159684 0.00504028)
(0.477204 -0.55886 0.00342839)
(0.479267 -0.479094 0.0010838)
(0.504764 -0.431376 0.000569144)
(0.548543 -0.397699 0.00154017)
(0.602719 -0.36357 0.00310501)
(0.659232 -0.323521 0.00434565)
(0.711907 -0.280395 0.00488467)
(0.757364 -0.239936 0.00487829)
(0.794716 -0.20599 0.00465078)
(0.824643 -0.179247 0.00443211)
(0.570231 -0.633504 0.00305458)
(0.578888 -0.557681 0.00141203)
(0.606962 -0.503867 0.00151348)
(0.648412 -0.45616 0.00265186)
(0.695597 -0.405535 0.00385921)
(0.7418 -0.352214 0.00451683)
(0.782734 -0.301614 0.00459583)
(0.816727 -0.258558 0.00438236)
(0.843981 -0.224517 0.00414361)
(0.865619 -0.198235 0.00400401)
(0.668669 -0.707417 0.00340326)
(0.680946 -0.629511 0.00231055)
(0.70784 -0.564903 0.0026835)
(0.743318 -0.501933 0.00362517)
(0.780849 -0.43729 0.00432229)
(0.81552 -0.374917 0.00448559)
(0.844843 -0.320411 0.00428159)
(0.868404 -0.276585 0.00398972)
(0.886996 -0.242808 0.00378419)
(0.901823 -0.216622 0.00370816)
(0.77211 -0.77675 0.0043475)
(0.785421 -0.692425 0.0035668)
(0.808158 -0.614853 0.00388613)
(0.835097 -0.537662 0.0044121)
(0.861399 -0.462302 0.00459219)
(0.88408 -0.394353 0.00438605)
(0.902184 -0.33815 0.00402236)
(0.916157 -0.294349 0.00371197)
(0.927052 -0.260779 0.00354243)
(0.935948 -0.234359 0.00350353)
(0.880332 -0.837766 0.00573402)
(0.892663 -0.74436 0.00499961)
(0.909112 -0.653604 0.00501328)
(0.925901 -0.564474 0.00502788)
(0.940194 -0.481704 0.00475273)
(0.950858 -0.410886 0.00428842)
(0.958185 -0.354448 0.00384122)
(0.963188 -0.31115 0.00353654)
(0.96697 -0.277804 0.00339357)
(0.970391 -0.251079 0.00337006)
(0.992916 -0.886328 0.00738801)
(1.0028 -0.782595 0.00645031)
(1.01154 -0.679794 0.00599438)
(1.01727 -0.581615 0.00549017)
(1.01928 -0.494559 0.00485002)
(1.01814 -0.42312 0.00422012)
(1.01514 -0.367652 0.00373978)
(1.01166 -0.32538 0.00345266)
(1.00873 -0.292494 0.00332809)
(1.00695 -0.265648 0.00330639)
(0.621595 -0.0717843 0.00740144)
(0.683071 -0.0564598 0.00697758)
(0.733372 -0.0425151 0.00634071)
(0.773545 -0.0315497 0.00571607)
(0.805232 -0.0237024 0.00519718)
(0.830146 -0.0184773 0.00479325)
(0.849786 -0.0152666 0.00447798)
(0.865334 -0.0135442 0.00422045)
(0.877671 -0.0128788 0.00399854)
(0.887442 -0.0128946 0.00380151)
(0.895141 -0.0132445 0.00362734)
(0.901175 -0.0136107 0.00347863)
(0.905914 -0.0137231 0.00335906)
(0.909715 -0.0133843 0.00327109)
(0.912927 -0.0124885 0.00321481)
(0.915883 -0.0110309 0.00318798)
(0.918885 -0.00910552 0.00318667)
(0.922178 -0.0068927 0.00320648)
(0.925931 -0.00463734 0.00324383)
(0.930216 -0.00262011 0.00329732)
(0.696435 -0.0953653 0.00644404)
(0.740112 -0.0764488 0.00602879)
(0.776215 -0.0612027 0.00558835)
(0.805637 -0.0494513 0.00520234)
(0.829458 -0.0406266 0.00488739)
(0.848721 -0.034128 0.00462966)
(0.864309 -0.029456 0.00440781)
(0.876922 -0.0262104 0.00420496)
(0.887098 -0.0240451 0.00401251)
(0.895256 -0.0226315 0.00382937)
(0.901744 -0.0216478 0.00365936)
(0.906872 -0.0207908 0.00350828)
(0.910944 -0.0197994 0.00338167)
(0.914262 -0.0184801 0.0032833)
(0.917129 -0.0167271 0.0032146)
(0.919839 -0.0145322 0.00317472)
(0.922655 -0.011984 0.00316118)
(0.925793 -0.00925645 0.00317084)
(0.929397 -0.00658751 0.00320115)
(0.933518 -0.00424982 0.00325133)
(0.755885 -0.116266 0.00554433)
(0.78599 -0.0962864 0.00528474)
(0.811418 -0.08031 0.00505169)
(0.832723 -0.0675958 0.00485673)
(0.850504 -0.0574891 0.00468932)
(0.865314 -0.0494916 0.00453307)
(0.877618 -0.0432323 0.00437491)
(0.887791 -0.0384067 0.0042085)
(0.896135 -0.0347272 0.00403418)
(0.902909 -0.0318974 0.00385724)
(0.908346 -0.0296125 0.00368557)
(0.912681 -0.0275777 0.00352757)
(0.916157 -0.025534 0.00339056)
(0.91903 -0.0232855 0.00327976)
(0.921563 -0.0207208 0.00319792)
(0.924017 -0.0178246 0.00314545)
(0.926628 -0.0146793 0.00312104)
(0.929589 -0.0114541 0.00312249)
(0.933025 -0.00838355 0.00314792)
(0.936971 -0.00573695 0.0031969)
(0.803947 -0.136525 0.00484914)
(0.823922 -0.116038 0.00475329)
(0.84135 -0.0992387 0.00468236)
(0.856467 -0.0853367 0.00462135)
(0.869524 -0.0737825 0.00455272)
(0.880746 -0.0642093 0.00446328)
(0.890322 -0.0563505 0.00434678)
(0.898411 -0.0499707 0.0042038)
(0.905155 -0.0448234 0.00404026)
(0.910693 -0.0406355 0.00386543)
(0.915174 -0.0371145 0.00368997)
(0.918769 -0.0339693 0.00352422)
(0.921671 -0.0309386 0.00337699)
(0.924095 -0.0278193 0.0032548)
(0.926275 -0.0244905 0.00316156)
(0.928444 -0.0209285 0.00309877)
(0.930818 -0.0172097 0.003066)
(0.933573 -0.0135011 0.00306178)
(0.936817 -0.0100383 0.00308467)
(0.940573 -0.00709221 0.00313449)
(0.84379 -0.156216 0.00435809)
(0.856228 -0.135083 0.00438329)
(0.867642 -0.117257 0.00441905)
(0.878006 -0.102044 0.0044419)
(0.887325 -0.0890191 0.00443416)
(0.895611 -0.0779188 0.00438622)
(0.902877 -0.0685481 0.00429624)
(0.909142 -0.0607178 0.00416875)
(0.914442 -0.0542099 0.0040127)
(0.918832 -0.0487689 0.00383956)
(0.922399 -0.0441112 0.00366157)
(0.925262 -0.0399469 0.00349034)
(0.927574 -0.0360096 0.0033358)
(0.929519 -0.0320868 0.00320547)
(0.931305 -0.0280465 0.00310425)
(0.933146 -0.0238557 0.0030345)
(0.935241 -0.0195866 0.00299651)
(0.937754 -0.0154079 0.00298936)
(0.940782 -0.0115608 0.00301197)
(0.944334 -0.00832408 0.00306437)
(0.877935 -0.174966 0.00401581)
(0.884609 -0.152877 0.00411285)
(0.891416 -0.133841 0.00420838)
(0.898082 -0.117271 0.00427722)
(0.904416 -0.102832 0.00430325)
(0.910278 -0.0903243 0.00427942)
(0.915565 -0.0795916 0.00420633)
(0.92021 -0.0704694 0.0040903)
(0.924178 -0.0627559 0.00394147)
(0.927471 -0.0562062 0.00377212)
(0.930131 -0.0505419 0.00359509)
(0.932241 -0.0454727 0.00342262)
(0.933925 -0.0407257 0.00326526)
(0.935343 -0.0360775 0.00313129)
(0.936681 -0.0313848 0.00302634)
(0.938141 -0.0266064 0.00295345)
(0.939911 -0.0218127 0.00291353)
(0.942146 -0.0171779 0.00290607)
(0.944931 -0.0129555 0.00293033)
(0.948262 -0.0094377 0.0029866)
(0.908501 -0.192658 0.00376626)
(0.910393 -0.169302 0.00389543)
(0.913459 -0.148881 0.00401687)
(0.917142 -0.130903 0.00410568)
(0.921048 -0.115094 0.00414716)
(0.924896 -0.101288 0.00413584)
(0.928487 -0.089343 0.00407342)
(0.931689 -0.0790977 0.00396675)
(0.934424 -0.0703509 0.00382604)
(0.936659 -0.0628572 0.00366336)
(0.938411 -0.0563366 0.00349141)
(0.93974 -0.0504942 0.00332239)
(0.94075 -0.0450486 0.00316708)
(0.941584 -0.0397646 0.00303416)
(0.942417 -0.0344875 0.00292976)
(0.943442 -0.029169 0.00285745)
(0.94484 -0.0238806 0.00281858)
(0.946759 -0.0188073 0.00281301)
(0.949277 -0.0142209 0.00284029)
(0.952372 -0.0104345 0.00290108)
(0.937425 -0.209457 0.00357552)
(0.934764 -0.18465 0.00370843)
(0.934414 -0.162686 0.00383326)
(0.935476 -0.143199 0.00392522)
(0.937304 -0.125984 0.00397017)
(0.939442 -0.110905 0.00396335)
(0.941578 -0.0978272 0.0039069)
(0.943511 -0.0865789 0.00380764)
(0.94512 -0.0769434 0.0036753)
(0.946351 -0.0686593 0.00352124)
(0.947207 -0.0614325 0.00335746)
(0.947735 -0.0549549 0.00319567)
(0.948031 -0.0489305 0.00304644)
(0.948232 -0.0431096 0.0029185)
(0.948508 -0.0373245 0.00281822)
(0.949047 -0.0315207 0.00274947)
(0.95003 -0.0257736 0.0027139)
(0.951601 -0.0202844 0.00271162)
(0.953829 -0.0153501 0.00274248)
(0.956676 -0.011312 0.00280755)
(0.966563 -0.225396 0.00343275)
(0.958939 -0.199273 0.00354875)
(0.954971 -0.175748 0.00366187)
(0.953386 -0.154662 0.00374638)
(0.953232 -0.135936 0.00378725)
(0.95382 -0.119505 0.00377938)
(0.954677 -0.105262 0.00372489)
(0.955497 -0.0930332 0.00363043)
(0.956103 -0.0825793 0.00350521)
(0.95641 -0.0736094 0.00335981)
(0.956408 -0.0657987 0.00320531)
(0.956142 -0.058811 0.00305261)
(0.955708 -0.0523251 0.00291174)
(0.955245 -0.046069 0.00279115)
(0.954924 -0.0398583 0.00269718)
(0.954939 -0.0336308 0.00263374)
(0.955473 -0.0274679 0.00260255)
(0.956671 -0.0215916 0.00260385)
(0.958596 -0.0163313 0.0026377)
(0.961186 -0.0120647 0.00270572)
(0.997537 -0.23984 0.00334269)
(0.98419 -0.213117 0.00342404)
(0.97598 -0.188359 0.00351343)
(0.971338 -0.165759 0.00358307)
(0.968997 -0.145464 0.00361521)
(0.967992 -0.127557 0.00360284)
(0.967627 -0.112022 0.00354723)
(0.967442 -0.0987249 0.00345477)
(0.967158 -0.0874211 0.00333436)
(0.966638 -0.0777884 0.00319596)
(0.965847 -0.0694589 0.00304982)
(0.964826 -0.062051 0.00290598)
(0.963675 -0.0552021 0.00277371)
(0.962541 -0.0486056 0.00266096)
(0.961607 -0.0420513 0.00257372)
(0.961078 -0.0354653 0.00251571)
(0.961146 -0.0289348 0.00248848)
(0.96196 -0.0227066 0.0024922)
(0.963575 -0.0171494 0.00252706)
(0.965908 -0.0126845 0.00259529)
(1.02339 -0.239071 0.00332607)
(1.00683 -0.214315 0.0033648)
(0.995783 -0.190474 0.00341488)
(0.988792 -0.168154 0.00345097)
(0.984573 -0.14779 0.00345647)
(0.982072 -0.129661 0.0034247)
(0.980488 -0.113876 0.00335703)
(0.979266 -0.100369 0.00325963)
(0.978058 -0.0889182 0.00314081)
(0.976685 -0.0791944 0.00300942)
(0.975095 -0.0708059 0.00287423)
(0.973325 -0.0633446 0.00274361)
(0.971481 -0.0564267 0.00262525)
(0.969716 -0.0497333 0.00252568)
(0.968223 -0.0430525 0.00244978)
(0.967204 -0.0363177 0.00240041)
(0.966853 -0.0296325 0.0023786)
(0.967308 -0.0232656 0.00238427)
(0.968608 -0.0176105 0.00241781)
(0.970644 -0.0131089 0.0024822)
(1.04047 -0.224584 0.00332745)
(1.02397 -0.203229 0.00332381)
(1.01224 -0.181929 0.00332905)
(1.00423 -0.161513 0.00332323)
(0.998875 -0.142602 0.00329389)
(0.995243 -0.12561 0.0032367)
(0.992592 -0.110738 0.00315381)
(0.990381 -0.0979781 0.00305102)
(0.988264 -0.0871421 0.00293544)
(0.986058 -0.0779161 0.00281411)
(0.983708 -0.0699152 0.00269369)
(0.981256 -0.0627375 0.00258034)
(0.97881 -0.0560112 0.00247966)
(0.976525 -0.0494371 0.00239631)
(0.974589 -0.0428299 0.00233365)
(0.973196 -0.0361517 0.00229347)
(0.972521 -0.0295308 0.00227613)
(0.972679 -0.0232519 0.00228146)
(0.973682 -0.0177118 0.00231025)
(0.975397 -0.0133447 0.0023663)
(1.05564 -0.208617 0.00331352)
(1.03945 -0.190696 0.00326918)
(1.02729 -0.172146 0.00323507)
(1.01842 -0.15389 0.00319519)
(1.01203 -0.136655 0.00313965)
(1.00735 -0.12096 0.00306525)
(1.0037 -0.107092 0.00297411)
(1.00059 -0.0951156 0.00287121)
(0.997658 -0.0848959 0.00276226)
(0.994728 -0.0761535 0.00265257)
(0.991738 -0.0685261 0.00254674)
(0.988726 -0.0616284 0.00244892)
(0.985796 -0.0551054 0.00236279)
(0.983103 -0.0486789 0.00229144)
(0.980825 -0.042188 0.00223702)
(0.979144 -0.0356201 0.00220048)
(0.978217 -0.0291237 0.00218186)
(0.978134 -0.0229944 0.00218109)
(0.978883 -0.0176283 0.00219955)
(0.980306 -0.0134477 0.00224205)
(1.06923 -0.191609 0.00329425)
(1.05349 -0.177106 0.00321398)
(1.04104 -0.161443 0.00314688)
(1.03145 -0.145538 0.00307998)
(1.02413 -0.130163 0.00300513)
(1.01847 -0.115902 0.00291964)
(1.01389 -0.103122 0.00282519)
(1.00993 -0.0919614 0.00272577)
(1.00626 -0.0823526 0.0026257)
(1.00269 -0.074067 0.00252854)
(0.999152 -0.0667798 0.00243688)
(0.995684 -0.0601341 0.0023528)
(0.992381 -0.0538 0.00227812)
(0.989388 -0.0475241 0.00221445)
(0.986871 -0.0411706 0.0021629)
(0.984997 -0.0347494 0.00212394)
(0.983898 -0.0284251 0.00209757)
(0.98364 -0.0224986 0.00208417)
(0.984184 -0.0173599 0.00208602)
(0.985351 -0.0134152 0.00210914)
(1.08127 -0.174145 0.00329143)
(1.06608 -0.162902 0.00317769)
(1.05352 -0.150132 0.00308114)
(1.04335 -0.136671 0.00299107)
(1.03522 -0.123274 0.00290055)
(1.02866 -0.110554 0.00280704)
(1.02321 -0.0989344 0.00271161)
(1.01846 -0.0886245 0.0026172)
(1.0141 -0.079626 0.00252678)
(1.00996 -0.0717719 0.00244216)
(1.00595 -0.064787 0.00236393)
(1.00211 -0.0583546 0.00229193)
(0.998531 -0.0521793 0.00222597)
(0.995336 -0.0460391 0.00216605)
(0.99268 -0.0398261 0.00211231)
(0.990705 -0.0335723 0.00206491)
(0.989519 -0.0274546 0.00202415)
(0.989157 -0.0217745 0.00199127)
(0.989552 -0.01691 0.00196982)
(0.990502 -0.013246 0.00196739)
(1.09168 -0.156824 0.00332994)
(1.07715 -0.148533 0.00318125)
(1.06464 -0.138515 0.00305473)
(1.05409 -0.127475 0.00294139)
(1.0453 -0.116098 0.00283516)
(1.03796 -0.104984 0.00273342)
(1.03172 -0.0945826 0.00263655)
(1.02624 -0.085159 0.00254643)
(1.02125 -0.0767796 0.0024647)
(1.01658 -0.0693419 0.00239151)
(1.01217 -0.0626279 0.00232536)
(1.00802 -0.0563706 0.00226377)
(1.00424 -0.0503185 0.00220419)
(1.00092 -0.0442887 0.00214473)
(0.998216 -0.0382062 0.0020844)
(0.996228 -0.0321265 0.00202307)
(0.995036 -0.0262375 0.00196162)
(0.994641 -0.0208367 0.00190253)
(0.994945 -0.0162849 0.0018511)
(0.995723 -0.0129407 0.00181682)
(1.10032 -0.140159 0.0034306)
(1.08659 -0.134402 0.00324285)
(1.07432 -0.126875 0.00308263)
(1.06359 -0.118123 0.00294256)
(1.05433 -0.108727 0.00281731)
(1.04637 -0.0992322 0.00270417)
(1.03945 -0.0900855 0.0026028)
(1.03332 -0.081581 0.00251403)
(1.02775 -0.0738384 0.00243823)
(1.02261 -0.0668155 0.00237397)
(1.01784 -0.0603539 0.00231771)
(1.01344 -0.0542424 0.00226448)
(1.00951 -0.0482808 0.00220911)
(1.00614 -0.042333 0.00214742)
(1.00346 -0.0363631 0.00207691)
(1.00153 -0.0304538 0.00199702)
(1.00041 -0.0248037 0.00190928)
(1.00005 -0.0197041 0.00181779)
(1.00032 -0.0154943 0.00172999)
(1.00097 -0.0125019 0.00165773)
(1.1071 -0.124528 0.00360581)
(1.09428 -0.120834 0.00337487)
(1.08247 -0.115454 0.00317606)
(1.07179 -0.108773 0.00300394)
(1.06227 -0.101245 0.00285419)
(1.05386 -0.0933328 0.00272424)
(1.0464 -0.0854462 0.00261318)
(1.03972 -0.0778844 0.00252088)
(1.03366 -0.0708008 0.00244654)
(1.02811 -0.0642037 0.00238726)
(1.02301 -0.0579914 0.00233755)
(1.01841 -0.0520101 0.00228996)
(1.01437 -0.0461157 0.00223648)
(1.011 -0.040225 0.00217021)
(1.00839 -0.0343475 0.00208667)
(1.00659 -0.0285974 0.00198453)
(1.00559 -0.0231866 0.00186589)
(1.00533 -0.0183995 0.00173661)
(1.00562 -0.014551 0.00160667)
(1.00618 -0.0119337 0.00149071)
(1.11199 -0.110144 0.00385817)
(1.1002 -0.108052 0.00358231)
(1.08902 -0.104444 0.00334108)
(1.0786 -0.0995637 0.00313162)
(1.06906 -0.0937332 0.0029512)
(1.0604 -0.0873168 0.00279787)
(1.05257 -0.0806639 0.00267054)
(1.04547 -0.0740525 0.00256838)
(1.039 -0.0676491 0.00248958)
(1.03309 -0.0614978 0.00242996)
(1.02773 -0.0555462 0.00238227)
(1.02296 -0.0496951 0.00233668)
(1.01885 -0.043858 0.00228224)
(1.01552 -0.0380081 0.00220904)
(1.01302 -0.0322051 0.00211015)
(1.01138 -0.0265999 0.00198296)
(1.01056 -0.0214214 0.00182986)
(1.01044 -0.0169481 0.00165844)
(1.01079 -0.01347 0.00148149)
(1.01131 -0.0112422 0.00131674)
(1.11506 -0.097081 0.00418149)
(1.10436 -0.0961753 0.00386277)
(1.09395 -0.0939744 0.00357809)
(1.08401 -0.0906017 0.00332772)
(1.07465 -0.0862625 0.00311124)
(1.06595 -0.0812173 0.00292802)
(1.05792 -0.07574 0.00277736)
(1.05055 -0.0700673 0.00265821)
(1.04378 -0.0643581 0.00256803)
(1.0376 -0.0586766 0.00250163)
(1.03203 -0.053008 0.00245029)
(1.02713 -0.0473024 0.00240201)
(1.02299 -0.0415277 0.00234304)
(1.0197 -0.0357142 0.00226028)
(1.01734 -0.0299746 0.00214393)
(1.01589 -0.0245008 0.00198959)
(1.01528 -0.0195428 0.00179948)
(1.01533 -0.0153766 0.00158272)
(1.01579 -0.0122684 0.0013549)
(1.01629 -0.010435 0.00113712)
(1.11644 -0.0852987 0.00456329)
(1.10685 -0.0852349 0.00420772)
(1.09732 -0.0841105 0.0038821)
(1.088 -0.0819606 0.00359012)
(1.07901 -0.0788913 0.00333422)
(1.07046 -0.0750668 0.00311578)
(1.06243 -0.0706801 0.00293524)
(1.05493 -0.0659134 0.00279187)
(1.048 -0.0609015 0.00268294)
(1.04165 -0.0557122 0.00260261)
(1.03593 -0.0503562 0.00254104)
(1.03095 -0.0448233 0.00248445)
(1.0268 -0.0391308 0.00241651)
(1.02359 -0.0333629 0.00232101)
(1.02137 -0.0276854 0.00218502)
(1.02013 -0.0223337 0.00200188)
(1.01973 -0.0175831 0.0017731)
(1.01998 -0.0137117 0.0015089)
(1.02055 -0.0109644 0.00122751)
(1.02107 -0.00952124 0.000953399)
(1.11634 -0.0746881 0.00498757)
(1.10783 -0.075193 0.00460434)
(1.09921 -0.0748651 0.00424376)
(1.09061 -0.0736778 0.00391275)
(1.08215 -0.0716603 0.00361682)
(1.07394 -0.0688935 0.00335992)
(1.06606 -0.0654931 0.00314429)
(1.05861 -0.061581 0.00297021)
(1.05164 -0.0572559 0.00283533)
(1.04522 -0.0525758 0.00273368)
(1.03945 -0.047564 0.00265475)
(1.03443 -0.0422398 0.00258344)
(1.03031 -0.0366617 0.0025013)
(1.02719 -0.030962 0.00238921)
(1.02513 -0.0253566 0.00223109)
(1.02408 -0.020125 0.00201769)
(1.02391 -0.0155707 0.00174923)
(1.02434 -0.0119783 0.00143652)
(1.02504 -0.0095765 0.00109999)
(1.02558 -0.00851122 0.000767342)
(1.11498 -0.0651062 0.00543735)
(1.10747 -0.0659706 0.00503763)
(1.09977 -0.0662108 0.00465075)
(1.09195 -0.0657604 0.00428632)
(1.08411 -0.0645919 0.00395274)
(1.07637 -0.0627194 0.00365673)
(1.06881 -0.0601898 0.0034028)
(1.06155 -0.0570656 0.00319289)
(1.05468 -0.0534033 0.00302566)
(1.04832 -0.0492408 0.00289557)
(1.04257 -0.0446029 0.00279201)
(1.0376 -0.0395277 0.00269914)
(1.03355 -0.0341052 0.0025969)
(1.03054 -0.0285083 0.00246371)
(1.02863 -0.0229971 0.00228055)
(1.02777 -0.0178925 0.00203536)
(1.02779 -0.013528 0.00172667)
(1.02841 -0.0101989 0.00136522)
(1.02923 -0.00812281 0.000973068)
(1.02979 -0.00741615 0.000580737)
(1.1126 -0.0564035 0.00589652)
(1.10599 -0.05747 0.00549217)
(1.09915 -0.0580967 0.00508932)
(1.09212 -0.0581932 0.00469942)
(1.08497 -0.0576931 0.00433325)
(1.07779 -0.0565591 0.00400013)
(1.07068 -0.0547814 0.00370706)
(1.06375 -0.0523679 0.00345808)
(1.05712 -0.0493321 0.00325342)
(1.05092 -0.0456858 0.00308857)
(1.0453 -0.0414464 0.00295345)
(1.04044 -0.0366607 0.00283206)
(1.0365 -0.0314408 0.00270342)
(1.03363 -0.0259903 0.00254409)
(1.03187 -0.020606 0.00233246)
(1.03119 -0.0156453 0.00205376)
(1.0314 -0.0114709 0.00170448)
(1.03217 -0.00839179 0.00129467)
(1.03309 -0.00661998 0.000847366)
(1.03366 -0.00624784 0.000395275)
(1.10943 -0.0484418 0.00635108)
(1.1036 -0.0495922 0.00595353)
(1.09754 -0.0504621 0.0055456)
(1.09127 -0.0509485 0.0051396)
(1.08483 -0.0509597 0.00474797)
(1.07827 -0.0504213 0.00438214)
(1.0717 -0.0492786 0.00405149)
(1.06521 -0.047493 0.00376232)
(1.05893 -0.0450377 0.00351685)
(1.05301 -0.0418962 0.00331216)
(1.04762 -0.0380722 0.00313927)
(1.04295 -0.0336137 0.00298273)
(1.03919 -0.0286449 0.00282129)
(1.03648 -0.0233906 0.00263041)
(1.03489 -0.0181748 0.00238645)
(1.03437 -0.0133845 0.00207221)
(1.03472 -0.00940837 0.00168199)
(1.03562 -0.00657073 0.00122464)
(1.0366 -0.00508252 0.000723392)
(1.03716 -0.00501809 0.000212417)
(1.10568 -0.0411032 0.00678972)
(1.1005 -0.0422476 0.00640917)
(1.09513 -0.0432471 0.00600664)
(1.08955 -0.0439942 0.00559443)
(1.0838 -0.0443821 0.00518574)
(1.07789 -0.0443109 0.00479345)
(1.07191 -0.0436921 0.0044289)
(1.06595 -0.0424498 0.00410057)
(1.06012 -0.040522 0.00381284)
(1.05459 -0.0378646 0.00356477)
(1.04952 -0.0344649 0.00334904)
(1.04513 -0.0303654 0.00315134)
(1.04159 -0.0256946 0.00295097)
(1.03908 -0.0206888 0.002723)
(1.03767 -0.0156893 0.00244256)
(1.0373 -0.0111041 0.00209042)
(1.03778 -0.00734283 0.00165877)
(1.03877 -0.00474435 0.00115489)
(1.03978 -0.00352212 0.000601461)
(1.04029 -0.00373815 3.32886e-05)
(1.10154 -0.0342925 0.007204)
(1.09688 -0.035361 0.00684891)
(1.09208 -0.0363994 0.00646118)
(1.08713 -0.0373007 0.00605233)
(1.08201 -0.0379502 0.00563546)
(1.07675 -0.0382321 0.00522415)
(1.07139 -0.0380338 0.00483105)
(1.066 -0.0372512 0.00446649)
(1.0607 -0.0357934 0.00413697)
(1.05564 -0.0335918 0.0038437)
(1.05099 -0.0306164 0.0035814)
(1.04695 -0.0269005 0.00333754)
(1.04371 -0.0225701 0.00309263)
(1.04144 -0.0178645 0.00282224)
(1.04022 -0.0131322 0.00250099)
(1.04 -0.00879311 0.00210833)
(1.04059 -0.00527081 0.00163457)
(1.04162 -0.00291622 0.00108518)
(1.04263 -0.00194713 0.000481667)
(1.04305 -0.00241807 -0.000141386)
(1.09716 -0.0279357 0.00758817)
(1.0929 -0.0288735 0.00726506)
(1.08858 -0.0298771 0.00689999)
(1.08415 -0.0308436 0.00650312)
(1.07961 -0.0316564 0.00608675)
(1.07495 -0.0321905 0.00566433)
(1.0702 -0.0323179 0.00524916)
(1.06542 -0.0319142 0.00485284)
(1.06071 -0.0308666 0.0044837)
(1.05619 -0.0290862 0.00414512)
(1.05202 -0.0265269 0.00383408)
(1.0484 -0.0232108 0.00354026)
(1.04552 -0.0192567 0.00324605)
(1.04354 -0.0148992 0.00292829)
(1.04254 -0.0104854 0.00256201)
(1.04247 -0.00643717 0.00212603)
(1.04315 -0.00318425 0.00160923)
(1.0442 -0.00108525 0.00101523)
(1.04515 -0.000362296 0.000363883)
(1.04544 -0.00106611 -0.000311302)
(1.09267 -0.0219765 0.0079389)
(1.08871 -0.0227399 0.00765234)
(1.08474 -0.0236488 0.00731604)
(1.08075 -0.0246062 0.00693843)
(1.07671 -0.0254977 0.00653044)
(1.0726 -0.026195 0.00610471)
(1.06845 -0.0265615 0.00567443)
(1.06428 -0.0264599 0.00525188)
(1.06017 -0.0257619 0.00484673)
(1.05624 -0.0243635 0.00446429)
(1.05262 -0.0222047 0.00410387)
(1.04949 -0.0192962 0.00375764)
(1.04702 -0.0157462 0.0034104)
(1.04538 -0.0117791 0.00304102)
(1.04462 -0.00773228 0.00262574)
(1.04471 -0.00402081 0.00214363)
(1.04546 -0.00107199 0.00158266)
(1.0465 0.000753595 0.000944765)
(1.04737 0.00123119 0.000247773)
(1.04748 0.000311776 -0.000476564)
(1.08817 -0.016372 0.00825482)
(1.0844 -0.0169268 0.00800758)
(1.08071 -0.0176918 0.0077044)
(1.07706 -0.0185779 0.00735179)
(1.07344 -0.0194757 0.0069589)
(1.06982 -0.0202579 0.00653702)
(1.06621 -0.0207852 0.00609859)
(1.06263 -0.0209133 0.00565587)
(1.05914 -0.020505 0.00521932)
(1.05581 -0.0194459 0.00479579)
(1.05278 -0.0176658 0.00438677)
(1.05019 -0.0151643 0.00398705)
(1.0482 -0.0120376 0.00358424)
(1.04693 -0.00849564 0.00315982)
(1.04645 -0.00485956 0.0026921)
(1.04671 -0.00152922 0.00216117)
(1.04753 0.00107871 0.00155476)
(1.04854 0.00260832 0.000873429)
(1.04928 0.00283544 0.000132828)
(1.04919 0.00171223 -0.00063763)
(1.27766 -0.0487899 0.0082833)
(1.27037 -0.082711 0.00741954)
(1.2582 -0.116362 0.00655329)
(1.24122 -0.149565 0.00573979)
(1.21936 -0.181469 0.0050263)
(1.1926 -0.210347 0.00444135)
(1.16128 -0.233837 0.00399077)
(1.12629 -0.249684 0.00366516)
(1.0892 -0.256676 0.00345213)
(1.05207 -0.255202 0.00334099)
(1.26007 -0.0459622 0.00835748)
(1.25422 -0.0742258 0.00754244)
(1.24417 -0.102321 0.00670655)
(1.23 -0.130369 0.00589952)
(1.21163 -0.157991 0.00516999)
(1.18898 -0.184064 0.00455618)
(1.16226 -0.206747 0.00407685)
(1.13211 -0.223929 0.00372971)
(1.09976 -0.233994 0.00350003)
(1.06687 -0.236522 0.00337129)
(1.24503 -0.0437125 0.00845136)
(1.24041 -0.0672317 0.00769361)
(1.23217 -0.0905909 0.00689904)
(1.22043 -0.114079 0.00610912)
(1.2051 -0.137634 0.00536889)
(1.18606 -0.160606 0.00472106)
(1.16335 -0.181678 0.00419658)
(1.13739 -0.19907 0.00380664)
(1.10911 -0.211084 0.00354333)
(1.07987 -0.21676 0.0033886)
(1.23188 -0.0419491 0.00854949)
(1.22826 -0.061494 0.00785668)
(1.22154 -0.0808466 0.0071148)
(1.21186 -0.100379 0.00635606)
(1.19915 -0.120219 0.00561849)
(1.18327 -0.140052 0.00494371)
(1.16412 -0.159004 0.00436987)
(1.14193 -0.175698 0.00392171)
(1.11733 -0.188579 0.00360428)
(1.09141 -0.196435 0.0034056)
(1.22017 -0.0405632 0.00863931)
(1.21733 -0.0567766 0.00801723)
(1.21184 -0.0727563 0.00733779)
(1.20386 -0.0889037 0.00662425)
(1.19338 -0.105451 0.00590604)
(1.18022 -0.122301 0.00521957)
(1.16423 -0.138915 0.00460441)
(1.14545 -0.154293 0.00409458)
(1.12426 -0.167142 0.00370897)
(1.10147 -0.176231 0.00344745)
(1.2096 -0.0394497 0.00871195)
(1.20736 -0.0528631 0.00816413)
(1.20283 -0.0660082 0.00755434)
(1.19623 -0.0792857 0.0068979)
(1.18757 -0.0929749 0.00621552)
(1.17671 -0.107112 0.00553612)
(1.16346 -0.12139 0.00489604)
(1.14774 -0.135119 0.00433302)
(1.12972 -0.147291 0.00387656)
(1.10993 -0.1568 0.00353989)
(1.19996 -0.0385177 0.00876199)
(1.19817 -0.0495681 0.00828984)
(1.19438 -0.060328 0.00775416)
(1.18885 -0.0711822 0.00716367)
(1.18165 -0.0824249 0.00653118)
(1.17268 -0.0941655 0.00587742)
(1.16176 -0.106252 0.00523261)
(1.14872 -0.118222 0.00463331)
(1.13358 -0.129325 0.00411461)
(1.11663 -0.138643 0.00370097)
(1.19113 -0.0376951 0.00878688)
(1.18964 -0.0467402 0.00838999)
(1.18639 -0.0554859 0.00793032)
(1.18168 -0.0642944 0.00741146)
(1.17562 -0.0734566 0.00683953)
(1.16818 -0.0831199 0.00622749)
(1.15917 -0.0932279 0.00559818)
(1.14841 -0.103481 0.00498356)
(1.13582 -0.113333 0.00441954)
(1.1215 -0.122058 0.00393756)
(1.18301 -0.0369282 0.0087862)
(1.18171 -0.0442611 0.00846272)
(1.17885 -0.0512965 0.00807885)
(1.17474 -0.0583724 0.00763439)
(1.16954 -0.0657682 0.00713016)
(1.16327 -0.0736476 0.00657237)
(1.15579 -0.0820133 0.00597639)
(1.14692 -0.0906751 0.00536781)
(1.13651 -0.0992416 0.00477964)
(1.12455 -0.107152 0.00424588)
(1.17552 -0.0361806 0.00876105)
(1.17433 -0.0420414 0.00850809)
(1.17172 -0.0476148 0.00819817)
(1.16804 -0.0532151 0.00782844)
(1.16347 -0.0591067 0.00739581)
(1.15808 -0.0654584 0.006901)
(1.15179 -0.0723085 0.0063526)
(1.14443 -0.0795404 0.00576925)
(1.13583 -0.0868738 0.00517885)
(1.12591 -0.093881 0.00461418)
(1.16862 -0.0354292 0.00871345)
(1.16746 -0.0400155 0.00852741)
(1.16501 -0.0443299 0.0082884)
(1.16161 -0.0486643 0.0079919)
(1.15748 -0.0532675 0.00763205)
(1.15273 -0.0583074 0.00720542)
(1.14731 -0.063844 0.00671489)
(1.14111 -0.0698108 0.00617249)
(1.13397 -0.0760072 0.00559993)
(1.12575 -0.0821076 0.00502627)
(1.16224 -0.0346618 0.0086459)
(1.16108 -0.0381371 0.00852281)
(1.15871 -0.0413588 0.00835092)
(1.15548 -0.0445983 0.00812476)