/*--------------------------------*- C++ -*----------------------------------*\
| =========                 |                                                 |
| \\      /  F ield         | OpenFOAM: The Open Source CFD Toolbox           |
|  \\    /   O peration     | Version:  2112                                  |
|   \\  /    A nd           | Website:  www.openfoam.com                      |
|    \\/     M anipulation  |                                                 |
\*---------------------------------------------------------------------------*/
FoamFile
{
    version     2.0;
    format      ascii;
    arch        "LSB;label=32;scalar=64";
    class       volScalarField;
    location    "0";
    object      error_U;
}
// * * * * * * * * * * * * * * * * * * * * * * * * * * * * * * * * * * * * * //

dimensions      [0 1 -1 0 0 0 0];

internalField   nonuniform List<scalar> 
2000
(
0.0347788
0.0774027
0.0828315
0.06808
0.0470893
0.0287802
0.018034
0.0144275
0.0124319
0.00917711
0.0529492
0.0971164
0.0985673
0.0779371
0.0504681
0.0256878
0.0102978
0.0110654
0.0142789
0.0140472
0.0560324
0.105078
0.107425
0.085935
0.0570572
0.0316594
0.0184597
0.0199064
0.023356
0.0238763
0.0405235
0.097074
0.105288
0.08849
0.0637995
0.0428267
0.0326883
0.0319671
0.032992
0.0318374
0.0119745
0.0751436
0.0936657
0.0860832
0.0690508
0.0533275
0.0441239
0.0406087
0.038763
0.0357655
0.0381191
0.0461442
0.0773759
0.0808188
0.0717304
0.0598296
0.0500155
0.0433255
0.0385055
0.0339116
0.0830203
0.0238605
0.0614501
0.0740555
0.0709342
0.0611123
0.0499999
0.040248
0.032673
0.02698
0.124029
0.0329208
0.0491049
0.0662771
0.0666775
0.0579257
0.0457538
0.0337779
0.0241381
0.0180956
0.156361
0.0526698
0.0412581
0.0579892
0.0602522
0.0524289
0.0401831
0.0274492
0.0168691
0.01108
0.178148
0.0678399
0.0371783
0.0503445
0.0537968
0.0473077
0.0361735
0.0242522
0.0140556
0.0079829
0.335629
0.241973
0.177288
0.130942
0.0993334
0.0801873
0.0714
0.0692863
0.0693693
0.0685695
0.250608
0.171702
0.11979
0.0822547
0.0564855
0.0403965
0.0328235
0.0323859
0.0351275
0.0374078
0.176648
0.11139
0.0726787
0.0435492
0.0241308
0.0139271
0.0078738
0.00423454
0.00715243
0.0112282
0.115507
0.0621279
0.0389764
0.0173133
0.00412281
0.0152462
0.0195942
0.0182285
0.0140083
0.00934252
0.0701976
0.0283521
0.0307916
0.0219823
0.0161282
0.0227674
0.0280977
0.0283084
0.0249325
0.0202924
0.0451997
0.0256754
0.0441103
0.0394866
0.0294405
0.0265296
0.0287514
0.0292987
0.0268476
0.0228755
0.0376959
0.0369716
0.0565682
0.0531978
0.0409841
0.030845
0.0266499
0.0248423
0.0220188
0.0181817
0.0312854
0.041901
0.0622617
0.06045
0.0486975
0.036089
0.0270801
0.0212503
0.0160418
0.0103152
0.0162782
0.0443134
0.0637834
0.0618658
0.0507234
0.038328
0.0284857
0.0213284
0.0152758
0.00962163
0.0104071
0.0559825
0.0691419
0.0624084
0.0484768
0.0351792
0.0258145
0.0197182
0.0147574
0.0102667
0.0655001
0.0610389
0.0544802
0.046653
0.038428
0.0305539
0.0235765
0.0178324
0.0134784
0.0105285
0.00887791
0.00832568
0.00864438
0.00965325
0.0112225
0.0132426
0.0156161
0.018259
0.0211089
0.0241282
0.0379038
0.03784
0.0350748
0.0303418
0.0245813
0.0187229
0.0136013
0.009956
0.00826886
0.00819811
0.00879392
0.0094787
0.0101841
0.0110792
0.0123548
0.0140976
0.0162775
0.0187957
0.0215465
0.0244442
0.0139371
0.0171762
0.0175765
0.0155751
0.0121028
0.00840004
0.00628865
0.00710578
0.00919614
0.0110105
0.0121367
0.0126316
0.0127649
0.0129155
0.0134608
0.0146364
0.016456
0.0187689
0.0213846
0.0241407
0.00685977
0.00349777
0.00382516
0.00367528
0.00288732
0.00436478
0.00765043
0.0109914
0.0136593
0.0153563
0.0160485
0.0158973
0.0152188
0.0144534
0.0141059
0.0145756
0.0159603
0.0180559
0.0205512
0.0231819
0.0181579
0.0123491
0.00826864
0.00684238
0.00759848
0.00985185
0.0128091
0.0157036
0.0179454
0.0191955
0.019366
0.0185786
0.0171316
0.015479
0.0142099
0.0139088
0.0148311
0.0167365
0.0191613
0.0217095
0.0223281
0.0175312
0.0135771
0.0119965
0.0123089
0.0140115
0.0164711
0.0189715
0.0208964
0.0218466
0.0216705
0.0204387
0.0184133
0.016031
0.0139207
0.0128404
0.0132913
0.0150521
0.0174741
0.0199968
0.0192757
0.0165698
0.0138378
0.0127804
0.0132105
0.0149799
0.0174994
0.0200448
0.0220103
0.0229839
0.0227743
0.021402
0.0190846
0.016225
0.0134502
0.0116485
0.0116359
0.0133064
0.0157948
0.0183511
0.0116727
0.0106199
0.00918032
0.00868496
0.00984766
0.0123946
0.0155365
0.0186083
0.0210697
0.0225037
0.0226676
0.0215225
0.0192386
0.0161844
0.0129671
0.0105519
0.0101029
0.0117472
0.0143754
0.0170229
0.00801339
0.00680044
0.00645353
0.00619378
0.00612812
0.0076439
0.0109202
0.0147816
0.0182248
0.0206049
0.0215634
0.0209946
0.0190294
0.0160161
0.0125496
0.00963923
0.00879632
0.010497
0.0133456
0.0161424
0.00618042
0.00544929
0.0049117
0.00404154
0.00259
0.00146346
0.00565985
0.0105782
0.0150476
0.0183852
0.0201693
0.0202343
0.0186645
0.015781
0.0121629
0.00884041
0.00767115
0.00955855
0.0127156
0.01571
0.00844425
0.0092262
0.012718
0.0152867
0.015342
0.0138356
0.0128363
0.0139205
0.0164948
0.0190183
0.0204568
0.0203566
0.0186668
0.0156399
0.0118126
0.00821057
0.00694017
0.00910571
0.0125121
0.0156403
0.00826771
0.0138651
0.0172763
0.0180041
0.0163195
0.0134414
0.0115538
0.0124905
0.0152932
0.0179974
0.0195069
0.019406
0.0176851
0.0146187
0.010755
0.00718686
0.0063354
0.00900777
0.0126085
0.0157937
0.014003
0.0199216
0.0222613
0.0213872
0.0180989
0.0137603
0.0106075
0.0110095
0.013882
0.0167112
0.018275
0.0181882
0.0164696
0.0134081
0.00956367
0.00612524
0.00590063
0.00907368
0.0128141
0.0160269
0.0212996
0.0255991
0.0265211
0.0242936
0.0197762
0.0143058
0.0100018
0.00966127
0.0124612
0.0153241
0.0168926
0.0167977
0.0150826
0.0120451
0.00824897
0.00504018
0.00564845
0.00925588
0.0130709
0.0162769
0.0271878
0.0299834
0.0296141
0.026314
0.0209195
0.0147027
0.00958472
0.00853124
0.0111564
0.0139601
0.0154683
0.0153213
0.0135925
0.0105767
0.00684704
0.00397552
0.00560963
0.00952695
0.013349
0.016511
0.0311578
0.0328249
0.0314456
0.0273471
0.0213885
0.0147631
0.00919888
0.00763908
0.0100519
0.0127075
0.0140747
0.0138315
0.0120518
0.00905115
0.00538473
0.0030759
0.00580269
0.00987607
0.013636
0.0167185
0.0334405
0.0342654
0.0321185
0.0274769
0.0212045
0.0144396
0.00877948
0.00698188
0.0091623
0.0115953
0.0127587
0.012369
0.0105255
0.0075211
0.0039127
0.00260045
0.00621789
0.0102916
0.0139273
0.0168951
0.034413
0.0345538
0.0318534
0.0268665
0.0204818
0.0137985
0.0082957
0.00653476
0.00850221
0.0106435
0.0115482
0.0109817
0.00904863
0.00604159
0.00252927
0.00281838
0.00681106
0.010756
0.0142155
0.0170407
0.0344269
0.0339879
0.0308758
0.0257054
0.0193761
0.0129323
0.00780417
0.00628451
0.00804416
0.00984046
0.0104536
0.00968519
0.00766155
0.00466908
0.00147232
0.00356878
0.00751352
0.0112443
0.0144871
0.0171444
0.0337601
0.032833
0.0294205
0.0241933
0.0180299
0.0119608
0.00736037
0.00620978
0.00774974
0.00917189
0.00946819
0.00849299
0.00639181
0.0034895
0.00146541
0.00453461
0.00825596
0.011722
0.0147189
0.0171928
0.0326288
0.0312958
0.0276904
0.0224943
0.0165906
0.0109832
0.00703303
0.00628707
0.00757877
0.00861219
0.00858734
0.00741433
0.0052735
0.00264544
0.00238124
0.0055364
0.00897735
0.0121564
0.0148877
0.0171635
0.0311929
0.0295515
0.0258479
0.0207643
0.0151846
0.0101186
0.00686838
0.00646238
0.00749121
0.00813804
0.00780275
0.0064586
0.00435289
0.00236737
0.0034606
0.0064881
0.00964038
0.0125087
0.0149582
0.0170269
0.0295729
0.0277316
0.0240118
0.0191131
0.0139162
0.00943712
0.00687381
0.00671256
0.00746002
0.00773637
0.00711802
0.00564709
0.00370911
0.00272105
0.00451525
0.00736105
0.010215
0.0127609
0.0149086
0.0167548
0.0278614
0.0259304
0.022287
0.0176363
0.0128705
0.00899913
0.0070485
0.00700381
0.00746538
0.00740482
0.00654561
0.00502969
0.00345923
0.00347088
0.00552142
0.0081533
0.0106908
0.0128937
0.0147173
0.0163252
0.0261558
0.0242391
0.0207526
0.0164144
0.0121167
0.00884141
0.00737308
0.0073314
0.0075116
0.00716063
0.0061338
0.00469294
0.00369005
0.0044212
0.0065027
0.00888509
0.0110828
0.0129101
0.0143766
0.0157073
0.0245509
0.0227391
0.0194836
0.0155104
0.0117007
0.00897242
0.00782235
0.00770722
0.00762949
0.00705224
0.00595597
0.00475071
0.00437811
0.00551063
0.00750076
0.00959791
0.0114236
0.0128322
0.0138834
0.014896
0.0231373
0.0215084
0.0185584
0.0149916
0.0116668
0.00938798
0.00841861
0.00818143
0.007878
0.00715657
0.00611803
0.00528744
0.00544379
0.00675041
0.0085756
0.0103537
0.0117688
0.0127076
0.0132755
0.0138803
0.0220215
0.0206358
0.0180386
0.0149022
0.0120377
0.010106
0.00920951
0.00882101
0.00835253
0.00758055
0.00671605
0.00630224
0.00683219
0.00817455
0.00979366
0.0112305
0.0122026
0.0126156
0.0126089
0.0126963
0.0212865
0.0202047
0.0179929
0.0152988
0.0128363
0.0111415
0.0102511
0.00972544
0.00914909
0.00841931
0.00781225
0.00776229
0.00852191
0.00982958
0.0112282
0.0123142
0.0128283
0.0126724
0.011993
0.0114005
0.0210003
0.0202603
0.0184647
0.0161877
0.0140743
0.0125517
0.0116316
0.0109982
0.0103744
0.00975957
0.00941078
0.00964259
0.0105261
0.0117645
0.012939
0.0136906
0.0137584
0.0130249
0.0116016
0.01013
0.00776163
0.0112407
0.0159254
0.0227699
0.029154
0.0318268
0.0295396
0.0233053
0.0144433
0.0104579
0.0103578
0.0141678
0.0166015
0.0200295
0.0244535
0.0273295
0.0266004
0.0215587
0.0120431
0.00810751
0.0122907
0.0166179
0.0183898
0.0193102
0.020869
0.022242
0.0213058
0.0169368
0.012202
0.0115255
0.0129661
0.0177254
0.0195141
0.0190357
0.0176349
0.0159981
0.0140325
0.0133389
0.0157818
0.016597
0.0125623
0.0175132
0.0194246
0.0182289
0.0145322
0.00949365
0.00744392
0.013078
0.0188834
0.0209282
0.0114025
0.0162634
0.0182546
0.0168009
0.0120149
0.00460145
0.00577008
0.0148288
0.0211455
0.0241789
0.00991216
0.0143386
0.0163145
0.0149551
0.0104006
0.00488734
0.00906214
0.0170902
0.0229349
0.0264944
0.00859054
0.0121173
0.0139456
0.0129094
0.00953929
0.00769819
0.012453
0.0191809
0.0244048
0.0280465
0.0080164
0.00999124
0.0114189
0.0107534
0.00896736
0.00985916
0.0148886
0.0208076
0.0255138
0.0289673
0.00852847
0.00842478
0.0090118
0.00856415
0.00830247
0.0110545
0.0163356
0.0218406
0.0261959
0.0293399
0.00995206
0.00789762
0.00706641
0.00643453
0.00740105
0.0114076
0.0169235
0.02225
0.0263994
0.0292361
0.0118645
0.00855964
0.00608498
0.00452679
0.00628365
0.0111161
0.0168198
0.0220924
0.0261272
0.028706
0.0139372
0.0100579
0.00644234
0.00340285
0.00510483
0.0103915
0.0162039
0.0214566
0.0254339
0.0278272
0.0159907
0.0119526
0.00783493
0.0038449
0.00420951
0.00945083
0.0152466
0.0204701
0.0244105
0.0266741
0.017931
0.0139575
0.00971301
0.00546019
0.00410684
0.00852597
0.0141249
0.019265
0.023167
0.0253637
0.0197084
0.0159343
0.0117376
0.00745792
0.00497513
0.00785068
0.013003
0.0179858
0.0218393
0.0239954
0.0213141
0.0178087
0.0137553
0.00953383
0.00644225
0.00763125
0.0120361
0.0167683
0.0205461
0.0227028
0.0227547
0.0195552
0.0156895
0.0115656
0.00816287
0.00794864
0.0113601
0.0157317
0.0194078
0.0215948
0.0240634
0.0211684
0.0175126
0.013498
0.00992996
0.00871274
0.0110529
0.0149566
0.0185282
0.0207816
0.025278
0.0226692
0.0192193
0.0153173
0.0116573
0.00975019
0.0110793
0.0144788
0.0179483
0.0203248
0.0529686
0.0658277
0.0791588
0.0915333
0.100859
0.104028
0.0967488
0.0754076
0.0584714
0.12827
0.0547247
0.0666863
0.0786812
0.0895861
0.0976586
0.100274
0.0939381
0.076815
0.0686295
0.134713
0.0470232
0.0571691
0.0669819
0.0757758
0.0821848
0.0840447
0.0787067
0.0664943
0.0712687
0.142817
0.0371781
0.0449074
0.0526769
0.0596911
0.0646305
0.0655483
0.0603661
0.0520014
0.070397
0.150644
0.0331062
0.0394758
0.0458737
0.0515002
0.0550126
0.054382
0.0475368
0.0400123
0.0697306
0.158868
0.0354021
0.0405874
0.0458475
0.0504604
0.0530112
0.051185
0.0423358
0.0335626
0.0711829
0.168282
0.0349971
0.0394047
0.0442664
0.0488825
0.0517438
0.0501704
0.040929
0.0318593
0.0746038
0.178389
0.0285335
0.0330144
0.0384954
0.0442745
0.0486793
0.0487111
0.0406259
0.0326094
0.0782453
0.187156
0.0187534
0.0241105
0.0310625
0.0388295
0.0455438
0.0478565
0.0415566
0.0339755
0.0796495
0.191771
0.0104599
0.0168016
0.0255643
0.0355994
0.0447459
0.0493471
0.0446628
0.0352762
0.0766634
0.189493
0.0754083
0.0960356
0.121806
0.154143
0.195012
0.247101
0.314159
0.401536
0.517107
0.672909
0.0558068
0.0743314
0.0974288
0.126428
0.163157
0.210124
0.27086
0.350476
0.456656
0.601431
0.0503797
0.0637244
0.0816564
0.105241
0.136049
0.17634
0.229412
0.300192
0.396321
0.530086
0.0500976
0.05766
0.0694308
0.0865168
0.110363
0.14303
0.18763
0.249016
0.33499
0.458418
0.0472293
0.049812
0.0556254
0.0660534
0.0826636
0.107455
0.143435
0.195522
0.271967
0.386585
0.0389545
0.0372714
0.0374535
0.0412793
0.0507867
0.0680161
0.095816
0.139316
0.20763
0.31589
0.0262141
0.021404
0.0162447
0.0125163
0.0147232
0.0254175
0.0457978
0.0817391
0.144116
0.249325
0.020082
0.0191445
0.0201465
0.0227071
0.0243161
0.0213104
0.0101722
0.0263336
0.0861882
0.191964
0.0331952
0.0378737
0.0455711
0.0539588
0.0602542
0.0607525
0.0501639
0.0223441
0.0448556
0.150609
0.0424341
0.0542266
0.066778
0.0786621
0.0876485
0.0903637
0.0819196
0.0572997
0.042098
0.130395
0.0410843
0.0399091
0.0390702
0.0382419
0.0373927
0.0364914
0.0355102
0.0344272
0.0332289
0.0319147
0.0305093
0.0290821
0.0277768
0.0268663
0.0268022
0.0282085
0.0317464
0.0379207
0.0470518
0.0594249
0.0282505
0.0279673
0.0271219
0.0262924
0.0254384
0.0245112
0.0234622
0.0222361
0.0207758
0.019022
0.0169137
0.0143905
0.0114159
0.00805728
0.00507724
0.00605256
0.0116091
0.0194435
0.0292429
0.041246
0.0230508
0.0188229
0.0184469
0.0182008
0.0180437
0.0179272
0.0178025
0.0176239
0.0173553
0.0169822
0.01652
0.0160353
0.0156685
0.0156593
0.0163458
0.0181004
0.0212332
0.025952
0.0324243
0.0407834
0.0253739
0.0131688
0.0138557
0.0148167
0.0159676
0.017234
0.018553
0.0198795
0.0211849
0.0224596
0.0237141
0.0249836
0.0263272
0.0278284
0.0295879
0.0317164
0.0343292
0.0375525
0.0415596
0.046231
0.0303512
0.0117069
0.0134434
0.0154144
0.0175267
0.0197179
0.0219445
0.0241757
0.026388
0.0285653
0.0306974
0.0327849
0.0348362
0.0368723
0.0389193
0.0410035
0.0431377
0.0453112
0.0475501
0.0489759
0.0346649
0.0132598
0.0153064
0.0175956
0.0200441
0.0226014
0.0252333
0.0279127
0.0306105
0.0332954
0.0359276
0.0384643
0.040855
0.0430487
0.0449902
0.0466201
0.047868
0.0486368
0.0489407
0.0468358
0.0372212
0.0157623
0.0176706
0.0198821
0.0223114
0.0249126
0.0276543
0.0305078
0.0334353
0.0363891
0.0393013
0.0420841
0.0446216
0.0467738
0.0483743
0.0492434
0.049188
0.0480108
0.0459352
0.0401931
0.037817
0.0182636
0.019919
0.0218894
0.0241134
0.0265669
0.0292243
0.0320511
0.0349989
0.0380026
0.0409727
0.043792
0.0463009
0.0482909
0.0494928
0.0495824
0.0481908
0.0449126
0.0401095
0.0326999
0.0365359
0.020561
0.0219942
0.0236304
0.0255257
0.0277065
0.0301536
0.0328148
0.0356146
0.0384583
0.0412294
0.0437908
0.0459808
0.0476186
0.0485015
0.0484008
0.047026
0.0437512
0.0378283
0.032935
0.033335
0.0228862
0.024062
0.0251935
0.0266384
0.028483
0.0306953
0.0331861
0.0358354
0.0384988
0.0410096
0.0431792
0.044802
0.0456736
0.0456329
0.0446331
0.0428097
0.0401288
0.0350495
0.0325945
0.032213
0.026836
0.0266477
0.0269885
0.0279224
0.0294397
0.0314637
0.0338688
0.0365006
0.0391785
0.0416948
0.0438048
0.0452187
0.0455909
0.0445301
0.0416581
0.0368385
0.030907
0.0272197
0.0316162
0.0337988
0.0304033
0.0288106
0.0282472
0.0285119
0.0295128
0.0311383
0.0332343
0.0356166
0.0380737
0.0403714
0.042243
0.0433795
0.0434261
0.0419901
0.0387101
0.0335332
0.0275357
0.0249035
0.0310935
0.035952
0.0327269
0.0305172
0.0292522
0.0288725
0.0293122
0.0304741
0.0321824
0.0342329
0.0363936
0.0384078
0.039996
0.0408517
0.0406351
0.0389809
0.0355686
0.0303761
0.024423
0.0215818
0.0269215
0.0381714
0.0346756
0.0319408
0.0300544
0.0290477
0.0288977
0.0295331
0.0307833
0.0324386
0.034248
0.0359398
0.0372403
0.0378586
0.0374793
0.0357781
0.0324706
0.0274882
0.021552
0.0176483
0.0205837
0.0403731
0.036478
0.0332342
0.0307585
0.0291253
0.0283521
0.0284041
0.0291451
0.0303497
0.0317681
0.0331274
0.0341627
0.0346147
0.0341965
0.0326295
0.0296476
0.0251149
0.0193795
0.0143137
0.0142646
0.0425563
0.0382359
0.0345029
0.0314658
0.0292049
0.0277964
0.0272316
0.0274005
0.0281098
0.0291143
0.0301479
0.03097
0.0313397
0.031025
0.0297715
0.0273292
0.0234882
0.0183008
0.0126587
0.00957909
0.0447414
0.040019
0.0358323
0.0322597
0.0294258
0.0273806
0.0261754
0.0257408
0.0259183
0.0264915
0.0272246
0.0278904
0.0282829
0.0282094
0.0274399
0.0257078
0.0227327
0.0183775
0.0129854
0.00799821
0.0469725
0.0418809
0.0372834
0.0332547
0.0298795
0.0272565
0.0254204
0.0243724
0.0240193
0.0241667
0.0246303
0.0252077
0.0257335
0.0260224
0.025852
0.0249124
0.0228473
0.0193978
0.0146532
0.00942379
0.049273
0.0438718
0.0389286
0.0345149
0.0307007
0.0275667
0.025185
0.0235707
0.0227044
0.0224638
0.0226997
0.0232664
0.024001
0.0247344
0.0251801
0.0250004
0.0237344
0.021035
0.016889
0.011917
0.051689
0.0460323
0.0408274
0.036114
0.0319686
0.0284399
0.0256286
0.0235684
0.0222849
0.021723
0.0218032
0.0224043
0.0233882
0.0245311
0.0255177
0.0259296
0.025248
0.0230688
0.0192798
0.0144669
0.0542453
0.0484097
0.0430106
0.0380997
0.033733
0.0299592
0.0268728
0.0245248
0.0229666
0.0221943
0.022197
0.0228579
0.0240391
0.0254859
0.0268302
0.0276036
0.0272634
0.0253386
0.0216925
0.0168262
0.0569912
0.0510334
0.0455175
0.0404999
0.0360114
0.0321321
0.0289211
0.0264573
0.0247795
0.023947
0.0239225
0.0246287
0.0259078
0.0274913
0.0289756
0.0298914
0.0296499
0.0277793
0.0240907
0.019024
0.059931
0.0539153
0.0483552
0.043305
0.0388108
0.0349197
0.031721
0.0292673
0.0276176
0.0267938
0.0267871
0.027508
0.0287931
0.0303509
0.0318058
0.0326631
0.0323564
0.030367
0.0264992
0.0211095
0.0630908
0.0570675
0.0515286
0.0465089
0.0420791
0.0382727
0.0351696
0.0328188
0.0312617
0.0305084
0.030537
0.031232
0.0324361
0.0338743
0.0351581
0.0358213
0.0352951
0.0330834
0.0289312
0.0231504
0.0664794
0.0604936
0.0550146
0.0500938
0.0457722
0.0421119
0.0391483
0.0369471
0.0355204
0.0348537
0.034908
0.0355665
0.0366449
0.0378781
0.0389083
0.0392787
0.0384568
0.03592
0.0314102
0.0251781
0.07009
0.0641893
0.058818
0.0540257
0.049858
0.0463608
0.0435741
0.0415375
0.0402493
0.0396789
0.0397484
0.0403451
0.041268
0.0422621
0.0429832
0.042997
0.041793
0.0388787
0.0339522
0.0272284
0.0739271
0.0681357
0.0629031
0.0582681
0.0542713
0.0509581
0.048363
0.0464937
0.0453431
0.0448517
0.0449344
0.0454538
0.0461991
0.0469309
0.0473108
0.0469269
0.0453033
0.0419444
0.0365607
0.0293401
0.0779726
0.0723176
0.0672403
0.0627836
0.0589748
0.0558579
0.0534476
0.0517503
0.0507271
0.0503127
0.0503961
0.0508299
0.0513938
0.0518467
0.0518609
0.0510544
0.0489684
0.045137
0.0392717
0.0315131
0.0822128
0.0767162
0.0718207
0.067543
0.0639341
0.0610142
0.0587874
0.0572525
0.0563484
0.056005
0.0560877
0.0564267
0.0568118
0.0569782
0.0566214
0.0553698
0.0528076
0.0484742
0.0420889
0.0337755
0.086638
0.0813104
0.0765972
0.0725253
0.0691114
0.0663888
0.064351
0.0629652
0.0621876
0.0619073
0.0619862
0.0622334
0.0624343
0.0623211
0.0615876
0.0598943
0.0568328
0.0519759
0.0450486
0.0361811
0.0409729
0.0428213
0.0366289
0.0280005
0.0247891
0.0286976
0.0297816
0.024358
0.0150019
0.00727553
0.0378936
0.0379228
0.0303721
0.0195908
0.0169432
0.023145
0.0252368
0.020446
0.0117075
0.00628721
0.0306497
0.0284036
0.0215064
0.0123501
0.0118014
0.0191605
0.0216777
0.017573
0.00973347
0.00665021
0.0223861
0.0194218
0.013839
0.00714465
0.010125
0.0172368
0.0195327
0.0158932
0.00884092
0.00688979
0.0157289
0.0124487
0.00820515
0.00506707
0.0108609
0.0170106
0.0187739
0.0153582
0.0088502
0.00675257
0.0117537
0.00787579
0.00417619
0.00549859
0.0121595
0.0175725
0.0189612
0.0157354
0.00960998
0.00656051
0.0104559
0.0060385
0.00189425
0.00641033
0.013184
0.0182945
0.0196345
0.0167086
0.0109754
0.00683667
0.0108414
0.006387
0.00256741
0.00710191
0.0137866
0.018906
0.0204584
0.0179825
0.0127299
0.00789556
0.0118374
0.0074428
0.00400827
0.00756396
0.0140343
0.0192858
0.0212333
0.0193489
0.0146631
0.0096161
0.0129308
0.00846494
0.00515192
0.00782063
0.0140101
0.0194297
0.0218578
0.0206365
0.016616
0.0116988
0.0139978
0.00931557
0.00597503
0.00791777
0.0137829
0.019343
0.0222811
0.0217734
0.0184567
0.0138876
0.0150551
0.0100234
0.00652633
0.00788098
0.0133975
0.0190719
0.022488
0.0227037
0.0201286
0.016031
0.0161284
0.0106394
0.00686681
0.00772425
0.0129067
0.0186461
0.0224929
0.023406
0.0215752
0.0180249
0.0172687
0.0112009
0.00706035
0.00748328
0.0123411
0.0180913
0.0223205
0.0238826
0.0227802
0.0198195
0.0184705
0.0117597
0.00715458
0.00719317
0.0117714
0.0174746
0.022013
0.0241548
0.0237545
0.0214002
0.0197533
0.0123291
0.00718902
0.00693129
0.0112586
0.0168672
0.0216177
0.024271
0.0245133
0.0227612
0.0211203
0.0129367
0.00725069
0.00682987
0.0109388
0.016361
0.0212268
0.0242899
0.0251024
0.0239206
0.0225751
0.0136181
0.00745073
0.00705632
0.010969
0.0161065
0.0209372
0.0242863
0.0255844
0.0249239
0.0241402
0.0144471
0.00793818
0.00777251
0.0115083
0.0162502
0.020891
0.0243648
0.0260287
0.0258194
0.0258654
0.0154947
0.00886844
0.00910536
0.0126916
0.0169645
0.0212458
0.0246716
0.0265466
0.0266837
)
;

boundaryField
{
    down
    {
        type            symmetryPlane;
    }
    right
    {
        type            calculated;
        value           nonuniform List<scalar> 
30
(
0.0241282
0.0244442
0.0241407
0.0231819
0.0217095
0.0199968
0.0183511
0.0170229
0.0161424
0.01571
0.0156403
0.0157937
0.0160269
0.0162769
0.016511
0.0167185
0.0168951
0.0170407
0.0171444
0.0171928
0.0171635
0.0170269
0.0167548
0.0163252
0.0157073
0.014896
0.0138803
0.0126963
0.0114005
0.01013
)
;
    }
    up
    {
        type            symmetryPlane;
    }
    left
    {
        type            calculated;
        value           uniform 0;
    }
    cylinder
    {
        type            symmetry;
    }
    defaultFaces
    {
        type            empty;
    }
}


// ************************************************************************* //
