/*--------------------------------*- C++ -*----------------------------------*\
| =========                 |                                                 |
| \\      /  F ield         | OpenFOAM: The Open Source CFD Toolbox           |
|  \\    /   O peration     | Version:  2112                                  |
|   \\  /    A nd           | Website:  www.openfoam.com                      |
|    \\/     M anipulation  |                                                 |
\*---------------------------------------------------------------------------*/
FoamFile
{
    version     2.0;
    format      ascii;
    arch        "LSB;label=32;scalar=64";
    class       volScalarField;
    location    "0";
    object      error_Phi;
}
// * * * * * * * * * * * * * * * * * * * * * * * * * * * * * * * * * * * * * //

dimensions      [0 2 -1 0 0 0 0];

internalField   nonuniform List<scalar> 
2000
(
0.0380697
0.0449849
0.0565452
0.0656838
0.068964
0.0662396
0.0594075
0.0508832
0.0427127
0.0360858
0.0467057
0.0498067
0.0577037
0.0643267
0.0665854
0.0640904
0.0581132
0.0505321
0.0429804
0.0365359
0.0507579
0.0504815
0.0550469
0.0593861
0.0608149
0.0587748
0.0540316
0.0479053
0.041621
0.0360261
0.0497389
0.0468718
0.0489105
0.0517117
0.0529509
0.0519219
0.0489387
0.0448104
0.0403412
0.0361538
0.0445924
0.0402611
0.0409888
0.0433526
0.0452878
0.0459286
0.045187
0.0433978
0.0410144
0.0384299
0.0373323
0.0328803
0.0336371
0.0367169
0.0401728
0.0429565
0.0446147
0.045123
0.0446403
0.0434078
0.0302381
0.0269311
0.028893
0.0335742
0.0390323
0.0440157
0.0478103
0.0501226
0.0509421
0.0504606
0.0250587
0.0239044
0.0278447
0.0345229
0.0419914
0.0487911
0.0540679
0.0573924
0.0587495
0.0583612
0.0226485
0.0242116
0.0304002
0.0390206
0.0480594
0.0560169
0.061961
0.0655313
0.0667634
0.065991
0.022935
0.0273291
0.0356189
0.0457203
0.0556969
0.0640644
0.0699939
0.0732186
0.0739273
0.0725665
0.0690474
0.0588318
0.0602017
0.0686366
0.0754951
0.0754547
0.0677959
0.0546275
0.0388478
0.0230082
0.05414
0.0394837
0.0361414
0.0423445
0.0501587
0.0530993
0.0489412
0.0387306
0.0249033
0.00998346
0.0421814
0.0235523
0.0150147
0.0179196
0.0258023
0.0315876
0.0315702
0.0255282
0.0151192
0.00255392
0.0325576
0.0109823
0.00256271
0.00381382
0.00287263
0.0105535
0.0143972
0.0128634
0.00664136
0.00258381
0.0243742
0.00132662
0.0163297
0.0219827
0.0176339
0.00940265
0.00270898
0.000266976
0.00232743
0.00788854
0.0165103
0.00635738
0.0266318
0.0361094
0.0346486
0.0270773
0.0188214
0.0133706
0.0119039
0.0140581
0.00787745
0.013312
0.0344291
0.046511
0.0477481
0.0414996
0.0327388
0.0253365
0.0211523
0.0204498
0.00226643
0.020614
0.0409181
0.0541138
0.0572573
0.0524241
0.0438351
0.0353332
0.0292033
0.0262092
0.0139979
0.02879
0.0469528
0.0597992
0.0638505
0.0601341
0.052027
0.0430475
0.0356118
0.0308475
0.0264902
0.03737
0.052486
0.06386
0.0678689
0.0648214
0.0573037
0.0483251
0.0401654
0.034044
0.00913308
0.00199758
0.0102976
0.0159803
0.0195082
0.021434
0.0223041
0.0226162
0.0227917
0.0231811
0.0240639
0.0256669
0.0281658
0.0316979
0.036366
0.0422439
0.0493798
0.0578021
0.067517
0.0785186
0.00363885
0.0148735
0.0233833
0.0291133
0.0323942
0.0337466
0.0337427
0.0329268
0.031775
0.0306866
0.0299883
0.02994
0.0307508
0.032585
0.0355721
0.0398065
0.0453595
0.0522773
0.0605843
0.0702883
0.00984737
0.020903
0.0297508
0.0358863
0.0393638
0.0405843
0.0401033
0.0385036
0.0363243
0.0340283
0.0319963
0.0305371
0.0298987
0.0302774
0.0318312
0.0346836
0.0389293
0.0446338
0.0518436
0.0605797
0.0127604
0.0229504
0.0319445
0.0386832
0.0427758
0.0443516
0.0438549
0.041869
0.0389879
0.0357499
0.0326093
0.0299358
0.0280286
0.0271277
0.027427
0.0290808
0.0322101
0.0369083
0.0432399
0.0512454
0.0151282
0.0235789
0.0321808
0.0394149
0.0443778
0.0467742
0.0467891
0.044906
0.0417274
0.037859
0.0338413
0.0301272
0.027087
0.0250188
0.0241637
0.0247172
0.0268358
0.0306416
0.0362248
0.0436465
0.0182186
0.0243286
0.0318744
0.0391821
0.0449687
0.0484865
0.0495302
0.0483313
0.0453924
0.0413276
0.0367525
0.032218
0.028188
0.0250436
0.023097
0.0225974
0.0237503
0.0267165
0.0316181
0.0385406
0.0218937
0.0255668
0.0315844
0.0384251
0.0447087
0.0493741
0.051804
0.0518567
0.0497843
0.0461
0.04143
0.0364072
0.0316069
0.0275191
0.0245535
0.0230427
0.0232573
0.0254102
0.0296685
0.0361482
0.025491
0.0269531
0.0312239
0.0371713
0.0435441
0.0491555
0.0530709
0.054757
0.0541161
0.0514301
0.0472339
0.0421832
0.0369462
0.0321371
0.0282872
0.0258415
0.025162
0.026539
0.0301934
0.0362864
0.0284376
0.0279949
0.0305121
0.0353838
0.0415479
0.0478035
0.0530443
0.0564386
0.057545
0.0563428
0.0531714
0.0486155
0.0433759
0.0381686
0.0336583
0.0304214
0.0289435
0.0296118
0.0327281
0.0385099
0.0300615
0.0282112
0.0295014
0.0334146
0.0391499
0.0456635
0.051838
0.0566935
0.0595323
0.0600351
0.058283
0.054691
0.0499085
0.0446976
0.0398305
0.0360254
0.0339036
0.0339813
0.0366602
0.0422357
0.0288224
0.0275524
0.0289818
0.0327697
0.0383095
0.0447654
0.0511804
0.0566392
0.0604053
0.0620341
0.0614323
0.0588472
0.0548096
0.0500306
0.0452989
0.041398
0.0390409
0.0388341
0.0412656
0.0466957
0.0269991
0.027271
0.0295477
0.0336723
0.0391809
0.0454204
0.0516174
0.0570095
0.0609553
0.0630281
0.0630795
0.0612543
0.0579669
0.0538333
0.0495879
0.045997
0.0437936
0.0436202
0.0460087
0.0513603
0.0258497
0.0272241
0.0301141
0.0343946
0.0397509
0.0456681
0.0515414
0.0567437
0.0607261
0.0630975
0.0636807
0.0625477
0.0600145
0.0566009
0.0529717
0.0498584
0.0479878
0.0480242
0.0505292
0.0559406
0.0255267
0.0275521
0.0307588
0.0350393
0.0401227
0.0456172
0.051059
0.0559447
0.0598154
0.0623255
0.0632946
0.0627446
0.0609122
0.0582318
0.0552923
0.0527737
0.0513806
0.0517797
0.0545496
0.0601555
0.0259052
0.0282328
0.0315354
0.0356495
0.0403606
0.0453579
0.0502788
0.054735
0.0583583
0.060855
0.0620579
0.0619597
0.0607384
0.058755
0.056524
0.054669
0.0538567
0.0547388
0.0579009
0.0638216
0.0268004
0.0291962
0.0324229
0.0362678
0.0405397
0.0449738
0.049308
0.0532476
0.0565091
0.0588568
0.0601482
0.060365
0.0596455
0.0582887
0.0567461
0.0555785
0.0554082
0.0568619
0.0605128
0.0668478
0.0280113
0.0303712
0.0334106
0.0369255
0.0406979
0.044545
0.0482533
0.051615
0.0544261
0.0565117
0.0577623
0.0581633
0.0578283
0.0570117
0.056106
0.0556148
0.0561121
0.058186
0.0623959
0.0692203
0.0294116
0.0316858
0.0345041
0.0376415
0.0409212
0.0441571
0.0472218
0.0499705
0.0522684
0.0540021
0.0551011
0.0555674
0.0555015
0.055127
0.0547891
0.0549373
0.0560955
0.0588123
0.0636198
0.0709838
0.030969
0.0331576
0.0357369
0.0384983
0.0412658
0.0439082
0.046328
0.0484448
0.0501888
0.0515034
0.0523605
0.0527847
0.0528812
0.0528491
0.0529962
0.0537283
0.0555171
0.0588723
0.0642921
0.0722221
0.0327183
0.0348406
0.0371857
0.0395732
0.0418481
0.0439026
0.0456882
0.0471697
0.0483334
0.0491778
0.0497198
0.0500133
0.0501697
0.0503823
0.0509282
0.0521733
0.0545479
0.0585159
0.0645399
0.0730421
0.0347744
0.0368173
0.0389456
0.0409657
0.0427715
0.0442603
0.0454256
0.0462747
0.0468447
0.0471812
0.0473481
0.0474302
0.0475571
0.047918
0.0487735
0.0504559
0.0533542
0.0578932
0.0644966
0.0735597
0.0372573
0.0392328
0.0411405
0.0428198
0.0441607
0.0451067
0.0456662
0.04589
0.0458549
0.0456561
0.0453965
0.0451977
0.0452113
0.0456308
0.0467061
0.0487421
0.0520949
0.0571491
0.0642941
0.073891
0.0403378
0.0422366
0.0439299
0.0452655
0.046156
0.0465725
0.0465392
0.04614
0.0454933
0.044733
0.0440045
0.0434636
0.0432861
0.0436765
0.0448807
0.0471851
0.0509152
0.0564203
0.0640534
0.0741463
0.0441379
0.0459569
0.0474366
0.0484392
0.0488963
0.04879
0.0481698
0.0471507
0.0458823
0.0445376
0.0432986
0.042357
0.0419158
0.0421935
0.0434365
0.0459191
0.0499428
0.0558264
0.0638878
0.0744269
0.0487795
0.0505187
0.0517968
0.0524759
0.0525131
0.0518874
0.0506865
0.0490452
0.0471442
0.0451885
0.0433993
0.0420007
0.0412241
0.0413059
0.042498
0.0450669
0.0492973
0.055478
0.0638977
0.0748247
0.0543394
0.0560172
0.0571024
0.0574921
0.057115
0.0559876
0.0542111
0.0519445
0.0493953
0.046803
0.0444215
0.04251
0.0413253
0.0411284
0.0421773
0.0447394
0.0490819
0.055474
0.064174
0.0754224
0.0608881
0.0625155
0.0634574
0.0635714
0.0628127
0.0612027
0.0588604
0.0559646
0.052753
0.0494949
0.046479
0.0439945
0.0423309
0.0417691
0.0425827
0.0450393
0.0493963
0.0559063
0.0648013
0.0762956
0.0684436
0.0700744
0.0709061
0.0707909
0.0696954
0.0676328
0.0647412
0.0612211
0.0573337
0.0533814
0.0496843
0.0465672
0.0443494
0.0433353
0.0438168
0.0460647
0.0503337
0.0568608
0.0658588
0.0775156
0.0770049
0.0786955
0.0794836
0.0792105
0.0778177
0.0753576
0.0719493
0.0678168
0.0632489
0.0585764
0.0541543
0.0503426
0.0474926
0.0459358
0.0459829
0.0479144
0.051986
0.0584239
0.0674238
0.0791509
0.0865671
0.0883842
0.0891976
0.0888423
0.087238
0.0844364
0.0805593
0.0758443
0.0706001
0.0651907
0.0600044
0.0554368
0.0518754
0.0496811
0.0491886
0.0506913
0.0544491
0.0606819
0.0695742
0.0812713
0.0697513
0.0639204
0.0570835
0.0496762
0.0425169
0.0367109
0.0331051
0.03166
0.0314465
0.0312373
0.0660035
0.0610065
0.0552121
0.048824
0.0422962
0.0364047
0.031959
0.0292933
0.0279716
0.027562
0.0617562
0.0573919
0.0524867
0.0471217
0.0414807
0.03603
0.0313729
0.0280054
0.0260082
0.0254609
0.057421
0.0534979
0.0492909
0.0448172
0.0401081
0.0353656
0.0310252
0.0275621
0.0253896
0.0247453
0.0533191
0.0496892
0.0460023
0.0422376
0.0383646
0.0344442
0.0307243
0.027635
0.025647
0.0249942
0.0496898
0.0462247
0.0428963
0.0396898
0.0365172
0.0333885
0.0304303
0.0279638
0.026357
0.0258325
0.046694
0.043308
0.0402162
0.0374104
0.0348201
0.0323861
0.0301801
0.0284044
0.0272917
0.0269967
0.0444191
0.0410709
0.0381306
0.0356199
0.0334785
0.0316239
0.0300879
0.0289433
0.0283375
0.0283203
0.0429321
0.0395877
0.0367453
0.0344467
0.0326474
0.0312765
0.0302795
0.0296847
0.029517
0.0297801
0.0422415
0.0388976
0.0361252
0.0339947
0.0324703
0.0314604
0.0309091
0.0307477
0.0309322
0.0314414
0.0423271
0.0389855
0.036285
0.034293
0.0329933
0.0322888
0.0320807
0.0322546
0.0327275
0.033417
0.0431576
0.0398508
0.0372288
0.0353644
0.034262
0.0338126
0.0338902
0.0343413
0.0350296
0.0358545
0.0446767
0.0414439
0.0389173
0.0371938
0.0362792
0.0360656
0.0363944
0.0370878
0.0379692
0.0389001
0.0468382
0.0437124
0.0413147
0.039745
0.0390313
0.0390503
0.0396251
0.0405571
0.0416419
0.042682
0.0495701
0.046605
0.0443632
0.0429959
0.042495
0.0427644
0.0436036
0.0447979
0.0460967
0.0472824
0.0527972
0.0500453
0.0480168
0.0468737
0.0466219
0.0471663
0.0483174
0.0498091
0.051388
0.0527761
0.056464
0.0539644
0.0522051
0.0513377
0.0513831
0.05225
0.0537348
0.0555959
0.0575108
0.0591929
0.0605065
0.058323
0.0568752
0.0563229
0.0567126
0.0579493
0.0598405
0.0621144
0.0644559
0.0665423
0.0648433
0.0630334
0.0619639
0.061792
0.0625699
0.0642211
0.0665787
0.0693473
0.0722152
0.0748093
0.0694274
0.0680505
0.0674093
0.0676674
0.0688922
0.071028
0.0739072
0.0772572
0.0807368
0.0839692
0.0806207
0.0839057
0.0865808
0.0881378
0.0879474
0.0852824
0.0793031
0.069054
0.0534699
0.0313011
0.0810205
0.0842827
0.0868552
0.0882426
0.0878628
0.085049
0.0790656
0.0691528
0.0544242
0.0338815
0.0809326
0.0839757
0.0862634
0.0873206
0.0866019
0.0835186
0.0774786
0.0678844
0.0541309
0.035452
0.080596
0.0834581
0.085475
0.0861817
0.0850526
0.0815901
0.075344
0.0659454
0.0530663
0.0362374
0.080679
0.0834429
0.0852502
0.0855916
0.0839826
0.0799776
0.0732868
0.0637983
0.0515196
0.0363269
0.0813853
0.0841235
0.0857217
0.0856624
0.0834419
0.0786953
0.0712835
0.0614088
0.0494274
0.0356589
0.0822269
0.0849257
0.0862779
0.0857268
0.0827637
0.0771033
0.0688019
0.0583432
0.0465246
0.034069
0.0823192
0.084907
0.0859107
0.0847485
0.0809563
0.0743213
0.0651216
0.054135
0.0425485
0.0315465
0.0809034
0.0832386
0.0837715
0.081924
0.0772621
0.0697466
0.0598298
0.048604
0.0375862
0.0283667
0.0776272
0.0795635
0.0795006
0.0769148
0.0714941
0.0633305
0.0530948
0.0421231
0.0321969
0.0251749
0.190026
0.188671
0.184974
0.178428
0.168473
0.154551
0.13605
0.112302
0.0824342
0.0451266
0.154368
0.15395
0.151644
0.146926
0.13922
0.127909
0.112322
0.0916668
0.0649229
0.0305915
0.128127
0.127927
0.126267
0.122628
0.116449
0.10707
0.0937787
0.0756691
0.0516081
0.0198749
0.109699
0.109438
0.108083
0.105134
0.100033
0.0921203
0.0806202
0.0645653
0.0426905
0.0131278
0.0971564
0.0969159
0.0958612
0.0935248
0.0893358
0.0826134
0.0725713
0.0581662
0.038026
0.0101781
0.0888268
0.088909
0.0883603
0.0867315
0.0834463
0.077821
0.0690031
0.0559162
0.0371011
0.0105296
0.0835298
0.0842693
0.0844911
0.0837269
0.0813894
0.0767684
0.0689881
0.0569142
0.0390704
0.0134193
0.0805524
0.0822026
0.0833211
0.0834669
0.0820506
0.0783088
0.0713532
0.0600196
0.0428391
0.0178927
0.0795297
0.0820203
0.0839701
0.0849013
0.0842027
0.081125
0.0747364
0.0638882
0.047197
0.0229144
0.0799976
0.0829543
0.0854157
0.0868251
0.0865551
0.0838252
0.0777372
0.0672084
0.0509888
0.0275753
0.133106
0.134554
0.136348
0.138448
0.140864
0.143575
0.14656
0.149808
0.153289
0.15698
0.16085
0.164861
0.168952
0.173059
0.177075
0.180892
0.184336
0.187197
0.189212
0.190077
0.118702
0.119828
0.121198
0.122786
0.124585
0.12657
0.128724
0.131024
0.133438
0.135954
0.138533
0.141148
0.143755
0.146321
0.14876
0.150982
0.152861
0.154227
0.154894
0.1546
0.107533
0.108605
0.109838
0.111228
0.112742
0.114356
0.116037
0.117755
0.119493
0.121207
0.122885
0.124492
0.126013
0.127392
0.1286
0.129561
0.130196
0.13039
0.129968
0.128766
0.0990109
0.100214
0.101539
0.102952
0.104412
0.105906
0.107373
0.108784
0.110115
0.111325
0.11238
0.113273
0.113971
0.114458
0.114709
0.114705
0.114376
0.113668
0.112476
0.110681
0.0926758
0.0941432
0.0956771
0.0972464
0.098809
0.100322
0.101735
0.10301
0.104092
0.104965
0.10557
0.105919
0.105972
0.10573
0.105213
0.104414
0.10334
0.101973
0.10028
0.0982162
0.0881445
0.0899263
0.0917392
0.0935323
0.0952524
0.0968564
0.0982823
0.0994717
0.100382
0.100971
0.101214
0.101085
0.100569
0.0996987
0.0984927
0.0970211
0.0953332
0.0935017
0.0915752
0.0895787
0.0850837
0.0872011
0.0892991
0.0913155
0.0931858
0.0948653
0.0962813
0.0973857
0.0981083
0.0984207
0.0982799
0.0976917
0.0966534
0.0951856
0.0933816
0.0913254
0.0891554
0.0870262
0.0851039
0.0835366
0.0832279
0.0856476
0.0879896
0.0901799
0.092152
0.0938499
0.0951907
0.0961276
0.0965951
0.0965629
0.0960115
0.0949368
0.0933736
0.0913884
0.0890785
0.086588
0.0841182
0.0818906
0.0802204
0.0794266
0.0823175
0.0850062
0.0875307
0.0898246
0.0918098
0.0934296
0.0946017
0.095263
0.0953752
0.0949107
0.0938588
0.0922621
0.0901714
0.0877174
0.0850494
0.0823664
0.0799089
0.0779574
0.0768436
0.0771316
0.0821807
0.085108
0.0877372
0.0900296
0.0919257
0.0933489
0.0942393
0.0945299
0.0941732
0.0931686
0.0915408
0.0893367
0.0867013
0.0838084
0.0808951
0.0782543
0.0762203
0.0751335
0.0753494
0.0769478
0.0829581
0.0857991
0.0883217
0.0904804
0.0921998
0.0933884
0.0939835
0.0939369
0.0931929
0.0917661
0.0897
0.0870854
0.0840858
0.0809378
0.0779217
0.0754075
0.0737688
0.0733512
0.074366
0.0766676
0.0842832
0.0868449
0.0891606
0.091104
0.0925997
0.093567
0.0939242
0.0936245
0.0926327
0.0909532
0.0886383
0.0857959
0.0825953
0.0792578
0.076088
0.0734499
0.0716913
0.0711342
0.0719457
0.074041
0.0858746
0.0882127
0.0902941
0.0920232
0.0932859
0.0940133
0.0941259
0.0935788
0.0923583
0.0904489
0.0879312
0.0848894
0.0814968
0.0779869
0.074655
0.0718259
0.0698604
0.0690407
0.0695097
0.0712211
0.0877269
0.0898496
0.0917128
0.093202
0.0942354
0.0947266
0.0946089
0.0938401
0.0923981
0.0902975
0.0875971
0.0843768
0.0808329
0.0771593
0.0736405
0.0706008
0.0683647
0.0671978
0.0672368
0.0684313
0.0898328
0.0917498
0.0933818
0.0946465
0.0954446
0.095713
0.095378
0.0944101
0.0927891
0.0905198
0.087659
0.0843018
0.0806072
0.076789
0.0730901
0.0698342
0.0673004
0.0657411
0.0653001
0.0659235
0.092167
0.0938769
0.0952937
0.0963375
0.0969322
0.0969877
0.0964639
0.0953139
0.0935293
0.0911151
0.0881263
0.0846532
0.0808471
0.0768918
0.0730387
0.0695615
0.066725
0.0647795
0.0638566
0.0639145
0.0947013
0.0962095
0.0974233
0.0982657
0.0986635
0.0985302
0.0978389
0.0965355
0.0946134
0.0920879
0.0890018
0.0854512
0.08155
0.0774921
0.073488
0.0698017
0.0666946
0.0643855
0.0630116
0.0625563
0.0974216
0.0987281
0.0997552
0.100409
0.100619
0.100332
0.0994855
0.0980571
0.0960323
0.0934267
0.0902714
0.0866481
0.0826838
0.0785432
0.0744263
0.0705784
0.0672275
0.06459
0.0628058
0.0618961
0.100266
0.101394
0.102242
0.102721
0.102773
0.102348
0.101377
0.0998501
0.0977447
0.0950667
0.0918658
0.0882197
0.084219
0.0800297
0.0758223
0.0718332
0.0682775
0.0653778
0.063253
0.061945
0.103206
0.104158
0.104836
0.105173
0.105086
0.104527
0.103459
0.101847
0.0996792
0.096972
0.0937538
0.0900891
0.0860825
0.0818718
0.0776185
0.073531
0.0698208
0.066695
0.0642978
0.0626562
0.106193
0.106983
0.107509
0.107696
0.107485
0.106822
0.105673
0.103995
0.101798
0.0990695
0.0958567
0.0922011
0.0882119
0.0840098
0.0797373
0.0755953
0.0717813
0.0684852
0.0658732
0.063972
0.109165
0.109804
0.110183
0.110241
0.109919
0.109169
0.10795
0.106229
0.104001
0.101273
0.098082
0.0944664
0.0905209
0.0863492
0.0820959
0.0779343
0.0740574
0.0706566
0.0678768
0.0657904
0.112062
0.11256
0.112806
0.11275
0.112329
0.111494
0.110209
0.108456
0.106219
0.103508
0.100348
0.0967866
0.0929034
0.088786
0.0845817
0.0804464
0.0765581
0.0730982
0.0702177
0.0679916
0.114843
0.115199
0.115321
0.115145
0.114628
0.113728
0.11239
0.110618
0.108379
0.105684
0.102579
0.099078
0.0952683
0.0912415
0.0871075
0.0830154
0.0791579
0.075685
0.0727618
0.070463
0.117444
0.117652
0.117649
0.117371
0.116772
0.11579
0.114414
0.112612
0.110373
0.107718
0.104665
0.101246
0.0975236
0.0935958
0.0895556
0.0855553
0.0817519
0.0783133
0.0753968
0.0730747
0.119799
0.119883
0.119759
0.119367
0.118673
0.117619
0.116198
0.11437
0.112146
0.109521
0.10652
0.103186
0.0995697
0.0957523
0.0918218
0.0879338
0.0842199
0.0808646
0.0779963
0.075703
0.121877
0.121816
0.121563
0.121059
0.120275
0.119156
0.117677
0.115833
0.113607
0.111014
0.108082
0.104822
0.101312
0.0976102
0.0938182
0.0900559
0.0864692
0.083219
0.0804432
0.078224
0.123603
0.123406
0.123023
0.122409
0.121516
0.120325
0.118793
0.116918
0.114687
0.112126
0.109243
0.106081
0.102674
0.0991065
0.095446
0.0918363
0.0883878
0.0852775
0.082622
0.0805263
0.124959
0.124613
0.124086
0.123349
0.122357
0.121074
0.11948
0.117567
0.115334
0.112791
0.109956
0.10687
0.103577
0.100128
0.0966267
0.0931706
0.0898956
0.0869342
0.0844511
0.0825128
0.125879
0.125387
0.124723
0.123849
0.122734
0.121356
0.11969
0.117729
0.115476
0.112942
0.110158
0.107144
0.103953
0.100633
0.0972834
0.0939874
0.0908959
0.0881272
0.0858234
0.0840716
0.077887
0.0779265
0.0776179
0.0772961
0.0774283
0.0781012
0.0788011
0.0787492
0.0773154
0.0742873
0.0754085
0.0747679
0.0739518
0.073579
0.0737913
0.0743886
0.0748404
0.0744953
0.0729271
0.0700457
0.0723837
0.0716132
0.0707019
0.0702652
0.070376
0.0707396
0.07083
0.0701336
0.0683408
0.06548
0.0692209
0.0685473
0.0678216
0.0674009
0.0673389
0.0673729
0.0670534
0.0659531
0.0638967
0.0609605
0.0663561
0.0658404
0.0653588
0.064992
0.0647623
0.0644475
0.0637062
0.0622065
0.0598518
0.0567883
0.0640481
0.0636796
0.0633873
0.0630864
0.0627043
0.0620656
0.0609134
0.0590233
0.0563764
0.0531641
0.0624211
0.0621555
0.0619857
0.0617078
0.0611928
0.0602702
0.0587519
0.0565155
0.0535936
0.050211
0.0615237
0.0613263
0.0611965
0.0609043
0.060255
0.0590873
0.0572653
0.0547261
0.0515609
0.0480174
0.0613558
0.0611608
0.0610272
0.0606776
0.0598889
0.0585096
0.0564303
0.0536469
0.0502788
0.0465993
0.0618751
0.0616419
0.0614518
0.0610158
0.0600864
0.0585315
0.0562522
0.0532756
0.0497508
0.0459597
0.0630026
0.0626904
0.0624138
0.0618659
0.0608172
0.0591033
0.0566713
0.0535625
0.0499397
0.0460778
0.0646576
0.0642288
0.0638394
0.0631875
0.0620223
0.0601958
0.057657
0.0544658
0.0507841
0.0469057
0.0667135
0.0661652
0.0656611
0.0648961
0.0636382
0.0617246
0.0591323
0.0559064
0.0522335
0.0483834
0.0690723
0.0683874
0.0677713
0.0669263
0.0655901
0.0636429
0.0610377
0.0578311
0.0542121
0.0504438
0.0715986
0.0707965
0.0700849
0.0691751
0.0678143
0.0658649
0.0632935
0.060166
0.0566619
0.0530262
0.0741839
0.0732792
0.0725123
0.071574
0.0702212
0.068318
0.0658325
0.0628388
0.0595055
0.0560586
0.0766991
0.0757514
0.0749614
0.0740409
0.0727369
0.0709342
0.068592
0.0657807
0.062668
0.0594603
0.0790472
0.0780992
0.0773495
0.076492
0.0753044
0.0736422
0.0714945
0.0689279
0.0660784
0.0631834
0.0811247
0.0802405
0.0795842
0.0788626
0.0778352
0.076388
0.0744895
0.0722121
0.0697008
0.0671542
0.0828426
0.0820961
0.0816042
0.0810681
0.0802796
0.0790955
0.0775037
0.0755822
0.0734453
0.0713139
)
;

boundaryField
{
    down
    {
        type            symmetryPlane;
    }
    right
    {
        type            calculated;
        value           uniform 0;
    }
    up
    {
        type            symmetryPlane;
    }
    left
    {
        type            calculated;
        value           nonuniform List<scalar> 
30
(
0.133106
0.118702
0.107533
0.0990109
0.0926758
0.0881445
0.0850837
0.0832279
0.0823175
0.0821807
0.0829581
0.0842832
0.0858746
0.0877269
0.0898328
0.092167
0.0947013
0.0974216
0.100266
0.103206
0.106193
0.109165
0.112062
0.114843
0.117444
0.119799
0.121877
0.123603
0.124959
0.125879
)
;
    }
    cylinder
    {
        type            symmetry;
    }
    defaultFaces
    {
        type            empty;
    }
}


// ************************************************************************* //
