/*--------------------------------*- C++ -*----------------------------------*\
| =========                 |                                                 |
| \\      /  F ield         | OpenFOAM: The Open Source CFD Toolbox           |
|  \\    /   O peration     | Version:  2112                                  |
|   \\  /    A nd           | Website:  www.openfoam.com                      |
|    \\/     M anipulation  |                                                 |
\*---------------------------------------------------------------------------*/
FoamFile
{
    version     2.0;
    format      ascii;
    arch        "LSB;label=32;scalar=64";
    class       volScalarField;
    location    "0";
    object      Phi_nn;
}
// * * * * * * * * * * * * * * * * * * * * * * * * * * * * * * * * * * * * * //

dimensions      [0 2 -1 0 0 0 0];

internalField   nonuniform List<scalar> 
2000
(
1.52784
1.52851
1.52908
1.52351
1.50914
1.48639
1.45756
1.42542
1.39226
1.3595
1.59924
1.59664
1.59447
1.58766
1.57379
1.55297
1.52689
1.49772
1.46734
1.43702
1.67012
1.66471
1.66023
1.65248
1.63939
1.62087
1.59805
1.57251
1.54568
1.51862
1.73959
1.73219
1.72626
1.7184
1.70684
1.69127
1.67234
1.65107
1.62847
1.60531
1.80816
1.79994
1.79382
1.78702
1.77796
1.7661
1.75164
1.73511
1.71711
1.69818
1.87739
1.86971
1.86479
1.86027
1.8546
1.84702
1.83729
1.82556
1.81211
1.79728
1.94908
1.94324
1.94073
1.93942
1.9377
1.93453
1.92935
1.92201
1.91261
1.90141
2.0245
2.02151
2.02222
2.02458
2.02685
2.02776
2.02655
2.0229
2.01687
2.00873
2.104
2.10444
2.10867
2.11465
2.12053
2.1249
2.1269
2.12622
2.12295
2.11746
2.18698
2.19099
2.19859
2.20777
2.21664
2.22375
2.2283
2.23005
2.22919
2.22618
1.08509
1.08629
1.06904
1.0394
1.0071
0.978315
0.954364
0.933638
0.913609
0.89203
1.10643
1.11212
1.09968
1.07239
1.03928
1.00767
0.980399
0.956905
0.935131
0.912851
1.13121
1.14098
1.13391
1.11015
1.07727
1.04314
1.01208
0.984802
0.960017
0.93581
1.15997
1.17284
1.17105
1.15181
1.12056
1.08502
1.05062
1.01941
0.991028
0.964111
1.19352
1.20805
1.21074
1.19637
1.16802
1.13257
1.09604
1.06158
1.02983
1.00006
1.2328
1.24742
1.25316
1.24322
1.21847
1.18447
1.14723
1.11069
1.07636
1.04418
1.27873
1.29197
1.2991
1.29248
1.27127
1.23955
1.20285
1.16545
1.12953
1.09563
1.33185
1.3426
1.34954
1.34485
1.32655
1.29736
1.26205
1.22482
1.18828
1.15343
1.39196
1.39956
1.40506
1.40099
1.38472
1.35793
1.3245
1.2883
1.25203
1.21702
1.45795
1.4621
1.46535
1.46085
1.44581
1.42114
1.38988
1.35541
1.32028
1.28594
0.867216
0.838218
0.805373
0.769037
0.729793
0.688295
0.645178
0.601012
0.556284
0.511396
0.466679
0.422399
0.378771
0.335966
0.294119
0.253334
0.213688
0.175235
0.138011
0.102035
0.887608
0.858167
0.825028
0.788268
0.748332
0.705839
0.661443
0.615759
0.569324
0.52259
0.475926
0.429636
0.383964
0.339108
0.295228
0.252451
0.210873
0.17057
0.131593
0.093975
0.908996
0.878298
0.844497
0.807205
0.766583
0.723117
0.677439
0.630196
0.581978
0.533296
0.484572
0.436152
0.388318
0.341299
0.295285
0.250428
0.206848
0.164642
0.123878
0.084606
0.934545
0.901379
0.86624
0.828161
0.786843
0.742487
0.695599
0.646813
0.596767
0.546037
0.495113
0.444401
0.394231
0.344874
0.296553
0.249452
0.203719
0.159473
0.116805
0.075778
0.966848
0.92983
0.892342
0.852936
0.81077
0.7656
0.717653
0.667443
0.615604
0.562773
0.50952
0.456331
0.403606
0.351673
0.300802
0.251215
0.203096
0.156591
0.111814
0.0688487
1.00697
0.964995
0.924048
0.882487
0.839049
0.792998
0.744139
0.692718
0.639256
0.584394
0.528773
0.472973
0.417489
0.362731
0.309035
0.256679
0.205891
0.156854
0.109712
0.0645715
1.05454
1.00702
0.961728
0.917101
0.871703
0.82443
0.774647
0.72221
0.667385
0.610708
0.552831
0.494414
0.436059
0.378282
0.321515
0.266115
0.21237
0.160516
0.110735
0.0631624
1.10874
1.05537
1.00514
0.956652
0.9085
0.859408
0.80841
0.754964
0.698985
0.640773
0.580885
0.519997
0.458798
0.397922
0.337919
0.279251
0.222298
0.167363
0.114683
0.0644339
1.16904
1.10957
1.05391
1.00089
0.94921
0.897561
0.844798
0.790072
0.732938
0.673381
0.611747
0.548631
0.484746
0.420819
0.357525
0.295456
0.235107
0.176876
0.121076
0.0679351
1.23512
1.16941
1.10788
1.0497
0.993746
0.938756
0.883518
0.826987
0.768426
0.707497
0.644266
0.579146
0.512786
0.445949
0.379413
0.313903
0.250049
0.18837
0.129279
0.0730762
1.27625
1.20764
1.1429
1.08149
1.02251
0.964904
0.907545
0.849413
0.789699
0.727911
0.663922
0.597961
0.530544
0.462374
0.394238
0.326918
0.261128
0.197477
0.136455
0.0784261
1.28901
1.22058
1.1554
1.09304
1.03283
0.973893
0.915319
0.856229
0.795895
0.733833
0.66985
0.604059
0.536854
0.468833
0.400721
0.333277
0.267228
0.203214
0.141764
0.0832786
1.3009
1.23253
1.1669
1.10366
1.04228
0.982074
0.922293
0.862203
0.801167
0.738728
0.674661
0.608997
0.542023
0.474237
0.406287
0.33889
0.272765
0.208566
0.146849
0.0880465
1.31208
1.24362
1.17751
1.11342
1.05092
0.989483
0.9285
0.867369
0.805548
0.742626
0.678366
0.612748
0.545974
0.478453
0.41075
0.34353
0.277481
0.213257
0.151427
0.0924465
1.32259
1.25391
1.18728
1.12236
1.0588
0.996172
0.934
0.8718
0.809126
0.74562
0.681058
0.615389
0.548753
0.481482
0.414065
0.347103
0.281246
0.217129
0.155322
0.0962934
1.3324
1.26344
1.19625
1.13054
1.06597
1.0022
0.938871
0.875595
0.812019
0.747848
0.682883
0.617063
0.550486
0.483422
0.41629
0.34963
0.284041
0.220132
0.15846
0.0994943
1.34148
1.27221
1.20449
1.13802
1.0725
1.00766
0.943206
0.878865
0.814362
0.749466
0.684014
0.61795
0.551348
0.48443
0.417557
0.351208
0.285932
0.222299
0.160846
0.102034
1.34982
1.28028
1.21205
1.14487
1.07847
1.01262
0.947111
0.881734
0.816298
0.750638
0.684634
0.618245
0.551537
0.484696
0.418038
0.351986
0.287039
0.223722
0.162546
0.103956
1.35748
1.28771
1.21904
1.15121
1.084
1.01721
0.950702
0.88433
0.817974
0.751529
0.684925
0.618144
0.551253
0.484421
0.417924
0.352138
0.287512
0.224529
0.163665
0.105343
1.36458
1.29463
1.22557
1.15715
1.0892
1.02155
0.954107
0.886788
0.819533
0.752299
0.68506
0.617832
0.550694
0.483802
0.417407
0.351844
0.287517
0.224865
0.164327
0.106301
1.37129
1.30121
1.2318
1.16286
1.09422
1.02578
0.957462
0.889244
0.82112
0.753098
0.685203
0.617485
0.55004
0.483025
0.416671
0.35128
0.287216
0.224877
0.164664
0.106945
1.37783
1.30762
1.2379
1.16848
1.09922
1.03004
0.960905
0.891835
0.822871
0.754071
0.685505
0.617262
0.549458
0.482259
0.415883
0.350609
0.286765
0.224709
0.164805
0.107391
1.38438
1.31407
1.24406
1.1742
1.10436
1.03448
0.96458
0.894698
0.824921
0.755353
0.686106
0.617307
0.549098
0.481657
0.415198
0.349981
0.286305
0.224493
0.164872
0.107748
1.39113
1.32072
1.25045
1.18017
1.10979
1.03926
0.968629
0.897968
0.827401
0.757073
0.687136
0.617752
0.549095
0.481355
0.414751
0.34953
0.285966
0.22435
0.164977
0.108119
1.39823
1.32773
1.25722
1.18656
1.11566
1.04452
0.973191
0.901777
0.830438
0.759354
0.688715
0.618721
0.549572
0.48148
0.414668
0.349377
0.285862
0.224389
0.165219
0.108594
1.4058
1.33523
1.2645
1.19349
1.12213
1.0504
0.9784
0.906256
0.834157
0.762317
0.690964
0.620329
0.550645
0.482144
0.41506
0.349631
0.2861
0.224708
0.165689
0.109256
1.41392
1.34331
1.27241
1.20109
1.12929
1.05703
0.984384
0.911532
0.838682
0.766083
0.693997
0.622691
0.552426
0.483458
0.416035
0.350396
0.286776
0.225398
0.166471
0.110181
1.42263
1.35202
1.28101
1.20944
1.13727
1.0645
0.991259
0.917722
0.844133
0.77077
0.697932
0.625919
0.555024
0.485528
0.417695
0.351771
0.287985
0.226547
0.167645
0.11144
1.43196
1.36142
1.29034
1.2186
1.14612
1.07292
0.999125
0.924938
0.850625
0.776497
0.702887
0.630131
0.558554
0.488464
0.420145
0.353853
0.289818
0.228239
0.169287
0.113101
1.44191
1.37148
1.30044
1.2286
1.1559
1.08234
1.00806
0.933274
0.858265
0.783378
0.708979
0.635443
0.563129
0.492377
0.423493
0.356746
0.292371
0.230562
0.171476
0.115234
2.22306
2.11469
2.0063
1.89901
1.79426
1.69378
1.59903
1.51048
1.4276
1.34954
2.22031
2.11494
2.00967
1.90533
1.80299
1.70401
1.60985
1.52141
1.43878
1.36145
2.21694
2.11411
2.0116
1.91003
1.8102
1.71316
1.62014
1.5322
1.4498
1.37284
2.21337
2.11272
2.01258
1.91351
1.8161
1.72115
1.62964
1.54254
1.46053
1.3838
2.20996
2.11116
2.01306
1.91617
1.82096
1.72805
1.63819
1.5522
1.47077
1.39425
2.20695
2.10974
2.0134
1.91838
1.82512
1.73408
1.64584
1.56105
1.48033
1.40409
2.20451
2.1087
2.01386
1.92045
1.82886
1.73947
1.65271
1.56909
1.48912
1.41321
2.20276
2.10817
2.01464
1.92262
1.83246
1.74447
1.65901
1.57644
1.49718
1.42157
2.20174
2.10826
2.01589
1.92507
1.83613
1.74934
1.66496
1.58328
1.50462
1.42925
2.20148
2.10901
2.01768
1.92791
1.84003
1.75425
1.67078
1.58983
1.51162
1.43639
2.20197
2.11044
2.02006
1.93124
1.84428
1.75937
1.67665
1.59627
1.5184
1.44319
2.20317
2.11253
2.02304
1.93509
1.84896
1.7648
1.68272
1.6028
1.52514
1.44984
2.20504
2.11526
2.02662
1.93948
1.85411
1.77063
1.68909
1.60955
1.53202
1.45656
2.20752
2.11859
2.03076
1.9444
1.85974
1.77688
1.69585
1.61662
1.53917
1.4635
2.21055
2.12247
2.03544
1.94984
1.86585
1.78358
1.70301
1.62408
1.5467
1.4708
2.21407
2.12683
2.04061
1.95574
1.87243
1.79074
1.71062
1.63197
1.55466
1.47856
2.218
2.13161
2.04621
1.96209
1.87944
1.79832
1.71865
1.64031
1.56309
1.48682
2.2223
2.13677
2.05219
1.96882
1.88685
1.80631
1.72711
1.64908
1.57201
1.49563
2.22688
2.14224
2.05849
1.9759
1.89462
1.81467
1.73596
1.65829
1.5814
1.50499
2.23171
2.14797
2.06508
1.98328
1.9027
1.82337
1.74517
1.66789
1.59124
1.51488
3.16909
3.14639
3.12421
3.10226
3.08017
3.05754
3.03397
3.00907
2.98253
2.95413
3.09189
3.07146
3.05138
3.03132
3.01096
2.98994
2.96792
2.94462
2.91989
2.89367
3.00926
2.99105
2.97299
2.9548
2.93614
2.91671
2.89626
2.87466
2.85193
2.82815
2.92203
2.90613
2.89022
2.87396
2.85704
2.83919
2.82026
2.80031
2.77953
2.75821
2.83124
2.81787
2.80427
2.79006
2.7749
2.75856
2.741
2.72246
2.70341
2.68438
2.73762
2.72697
2.71581
2.7037
2.69027
2.67532
2.65892
2.64156
2.62399
2.60704
2.64123
2.63342
2.62475
2.61474
2.60298
2.58932
2.57398
2.55766
2.54145
2.52652
2.54179
2.53683
2.53064
2.5227
2.5126
2.50023
2.48598
2.4708
2.45607
2.44329
2.43918
2.43701
2.43324
2.42733
2.41891
2.40797
2.39504
2.3813
2.36842
2.35813
2.33374
2.33422
2.33279
2.32891
2.32229
2.31304
2.30185
2.29008
2.27956
2.2722
3.6924
3.65315
3.61322
3.5724
3.5305
3.48745
3.44327
3.39811
3.35222
3.30582
3.64878
3.61071
3.57239
3.53361
3.49415
3.45389
3.41277
3.37084
3.32817
3.28479
3.60669
3.56931
3.53208
3.49479
3.45724
3.41926
3.38074
3.34161
3.30181
3.26114
3.56464
3.52789
3.49161
3.45562
3.41972
3.38372
3.34745
3.31076
3.27343
3.2351
3.52089
3.48505
3.44992
3.41533
3.38109
3.34696
3.31275
3.27821
3.243
3.20659
3.47397
3.43951
3.40592
3.37302
3.3406
3.3084
3.27616
3.24356
3.21014
3.17528
3.42292
3.39035
3.35872
3.32784
3.29745
3.26727
3.23696
3.20611
3.17422
3.1406
3.36721
3.33694
3.30761
3.27899
3.25078
3.22265
3.19419
3.16495
3.13437
3.10181
3.30653
3.2788
3.25193
3.22565
3.19963
3.17348
3.14677
3.11899
3.08963
3.05815
3.24059
3.21543
3.191
3.16698
3.14302
3.11871
3.0936
3.06723
3.03916
3.00902
4.5538
4.50564
4.45807
4.41107
4.36464
4.31879
4.27352
4.22882
4.18469
4.14113
4.09814
4.05571
4.01383
3.97248
3.93162
3.89118
3.8511
3.81125
3.77149
3.73166
4.53876
4.48996
4.44164
4.3938
4.34643
4.29952
4.25307
4.20708
4.16155
4.11646
4.07183
4.02766
3.98394
3.94066
3.89782
3.85538
3.8133
3.77151
3.7299
3.68837
4.52634
4.47683
4.42774
4.37904
4.33072
4.28278
4.23519
4.18795
4.14104
4.09448
4.04825
4.00235
3.9568
3.9116
3.86675
3.82224
3.77806
3.73416
3.6905
3.647
4.51598
4.46564
4.41566
4.366
4.31665
4.26759
4.21878
4.17022
4.12189
4.07378
4.02589
3.97821
3.93076
3.88355
3.83659
3.7899
3.74348
3.69733
3.65144
3.60577
4.50725
4.45589
4.40484
4.35405
4.30349
4.25313
4.20295
4.1529
4.10297
4.05315
4.00341
3.95377
3.90423
3.85482
3.80556
3.75649
3.70765
3.65906
3.61076
3.56276
4.49979
4.44719
4.39482
4.34265
4.29064
4.23875
4.18692
4.13513
4.08334
4.03153
3.97968
3.9278
3.87591
3.82403
3.77221
3.72052
3.66902
3.61779
3.5669
3.51639
4.49334
4.4392
4.38524
4.33141
4.27765
4.22391
4.17013
4.11628
4.0623
4.00817
3.95388
3.89943
3.84485
3.7902
3.73553
3.68096
3.62658
3.57251
3.51885
3.4657
4.48766
4.43168
4.37581
4.31999
4.26415
4.20823
4.15216
4.09589
4.03937
3.98256
3.92547
3.86811
3.81051
3.75277
3.69498
3.63728
3.57982
3.52275
3.4662
3.41023
4.48255
4.42442
4.36632
4.30818
4.24993
4.19148
4.13276
4.07371
4.01429
3.95445
3.89421
3.83359
3.77267
3.71156
3.6504
3.58938
3.52868
3.46848
3.40887
3.34983
4.47787
4.41728
4.35664
4.29586
4.23486
4.17354
4.11183
4.04966
3.98698
3.92378
3.86006
3.79589
3.73136
3.66664
3.60192
3.53741
3.47335
3.40987
3.34699
3.28446
4.47429
4.41232
4.35022
4.2879
4.22526
4.16221
4.09866
4.03456
3.96984
3.90451
3.83857
3.77211
3.70524
3.63814
3.57103
3.50416
3.43773
3.37186
3.30648
3.2412
4.47183
4.40969
4.34736
4.28473
4.22172
4.15823
4.09417
4.02949
3.96414
3.8981
3.8314
3.7641
3.69632
3.62823
3.56005
3.49201
3.42432
3.35709
3.29026
3.22346
4.46968
4.40734
4.34474
4.28179
4.2184
4.15446
4.08992
4.02469
3.95874
3.89205
3.82464
3.75658
3.68798
3.619
3.54985
3.48075
3.4119
3.34342
3.27525
3.20709
4.46784
4.40527
4.34239
4.27911
4.21534
4.15098
4.08596
4.02022
3.95372
3.88644
3.8184
3.74966
3.68032
3.61055
3.54053
3.47048
3.40059
3.33099
3.26163
3.19227
4.46629
4.40349
4.34033
4.27673
4.21258
4.14782
4.08237
4.01616
3.94916
3.88135
3.81275
3.74341
3.67344
3.60297
3.53219
3.4613
3.3905
3.3199
3.2495
3.17911
4.46506
4.40202
4.33858
4.27467
4.21018
4.14505
4.07919
4.01256
3.94512
3.87685
3.80776
3.7379
3.66738
3.59631
3.52488
3.45327
3.38167
3.31022
3.23893
3.16766
4.46413
4.40086
4.33716
4.27296
4.20815
4.14268
4.07647
4.00947
3.94163
3.87296
3.80345
3.73316
3.66217
3.5906
3.51862
3.4464
3.37413
3.30196
3.22991
3.15792
4.46351
4.40002
4.33608
4.2716
4.20651
4.14073
4.07421
4.00688
3.93871
3.8697
3.79984
3.72919
3.65781
3.58583
3.5134
3.44068
3.36786
3.29508
3.22242
3.14982
4.46319
4.39948
4.33531
4.27059
4.20524
4.1392
4.0724
4.00479
3.93634
3.86705
3.79691
3.72596
3.65428
3.58197
3.50917
3.43605
3.36279
3.28953
3.21636
3.14328
4.46314
4.39924
4.33486
4.26991
4.20434
4.13806
4.07102
4.00318
3.9345
3.86497
3.7946
3.72343
3.65151
3.57895
3.50588
3.43245
3.35884
3.28521
3.21165
3.13818
4.46333
4.39925
4.33468
4.26954
4.20376
4.13727
4.07003
4.002
3.93313
3.86342
3.79288
3.72153
3.64944
3.5767
3.50343
3.42978
3.35591
3.282
3.20814
3.13438
4.46374
4.39949
4.33474
4.26942
4.20346
4.1368
4.06939
4.00119
3.93217
3.86232
3.79165
3.72019
3.64798
3.57512
3.50172
3.42791
3.35388
3.27977
3.20571
3.13174
4.46433
4.39992
4.33501
4.26952
4.2034
4.13658
4.06903
4.0007
3.93156
3.86161
3.79085
3.71931
3.64703
3.57411
3.50063
3.42675
3.35261
3.27838
3.20419
3.13009
4.46505
4.40049
4.33542
4.26978
4.20352
4.13657
4.06889
4.00045
3.93122
3.86119
3.79038
3.7188
3.6465
3.57355
3.50006
3.42615
3.35197
3.27768
3.20343
3.12927
4.46586
4.40115
4.33594
4.27016
4.20376
4.13669
4.0689
4.00037
3.93107
3.861
3.79015
3.71857
3.64627
3.57335
3.49988
3.42599
3.35182
3.27754
3.20329
3.12912
4.46672
4.40186
4.33651
4.2706
4.20407
4.13689
4.06901
4.0004
3.93105
3.86094
3.79009
3.71852
3.64626
3.57338
3.49997
3.42614
3.35204
3.27781
3.20361
3.12949
4.46758
4.40258
4.33708
4.27104
4.20439
4.13711
4.06914
4.00046
3.93107
3.86094
3.7901
3.71856
3.64636
3.57356
3.50024
3.42651
3.3525
3.27837
3.20425
3.13023
4.46839
4.40325
4.33761
4.27144
4.20468
4.13728
4.06923
4.0005
3.93107
3.86094
3.79011
3.71862
3.64649
3.57379
3.50058
3.42697
3.35309
3.27909
3.2051
3.13122
4.46913
4.40383
4.33806
4.27175
4.20487
4.13737
4.06924
4.00045
3.93098
3.86085
3.79006
3.71862
3.64658
3.57398
3.5009
3.42743
3.35371
3.27986
3.20604
3.13232
4.46975
4.4043
4.33837
4.27193
4.20492
4.13733
4.06911
4.00026
3.93077
3.86063
3.78987
3.71849
3.64654
3.57406
3.50112
3.42782
3.35427
3.28061
3.20697
3.13345
3.17115
3.09283
3.00945
2.9217
2.83043
2.73623
2.63919
2.53914
2.4361
2.33049
3.15261
3.07462
2.99213
2.90571
2.81597
2.72332
2.62782
2.52944
2.42834
2.32505
3.13562
3.05808
2.97647
2.89122
2.80276
2.71138
2.61717
2.52019
2.42074
2.3194
3.12033
3.04327
2.96245
2.87819
2.7908
2.70049
2.60738
2.51162
2.41359
2.31391
3.1068
3.03017
2.95004
2.86661
2.78011
2.69072
2.59857
2.50388
2.40708
2.30885
3.09503
3.01876
2.93919
2.85645
2.77069
2.68209
2.59078
2.49705
2.40137
2.3044
3.08499
3.00898
2.92984
2.84765
2.76252
2.6746
2.58406
2.49121
2.39652
2.3007
3.07661
3.00074
2.92191
2.84015
2.75555
2.66824
2.5784
2.48635
2.39259
2.29781
3.0698
2.99394
2.91531
2.83389
2.74973
2.66295
2.57375
2.48246
2.38957
2.29575
3.06442
2.98847
2.90993
2.82876
2.74497
2.65867
2.57007
2.4795
2.38743
2.29452
3.06033
2.9842
2.90566
2.82466
2.74118
2.65532
2.56729
2.4774
2.38613
2.29409
3.0574
2.98099
2.90238
2.82148
2.73826
2.65282
2.56533
2.47611
2.3856
2.29441
3.05545
2.9787
2.89995
2.81911
2.73612
2.65105
2.56409
2.47553
2.38578
2.29541
3.05434
2.97718
2.89825
2.81743
2.73464
2.64994
2.5635
2.47558
2.38659
2.29704
3.05391
2.9763
2.89715
2.81633
2.73372
2.64938
2.56345
2.47619
2.38795
2.29923
3.054
2.97592
2.89654
2.81569
2.73327
2.64929
2.56387
2.47726
2.38979
2.30189
3.05449
2.97592
2.8963
2.81543
2.73319
2.64956
2.56467
2.47872
2.39202
2.30496
3.05524
2.97619
2.89633
2.81544
2.73338
2.65013
2.56577
2.4805
2.39458
2.30837
3.05613
2.97662
2.89653
2.81564
2.73379
2.65092
2.56711
2.48252
2.3974
2.31206
3.05708
2.97713
2.89683
2.81596
2.73432
2.65186
2.56861
2.48473
2.40043
2.31597
)
;

boundaryField
{
    down
    {
        type            symmetryPlane;
    }
    right
    {
        type            fixedValue;
        value           uniform 0;
    }
    up
    {
        type            symmetryPlane;
    }
    left
    {
        type            zeroGradient;
    }
    cylinder
    {
        type            symmetry;
    }
    defaultFaces
    {
        type            empty;
    }
}


// ************************************************************************* //
