/*--------------------------------*- C++ -*----------------------------------*\
| =========                 |                                                 |
| \\      /  F ield         | OpenFOAM: The Open Source CFD Toolbox           |
|  \\    /   O peration     | Version:  2112                                  |
|   \\  /    A nd           | Website:  www.openfoam.com                      |
|    \\/     M anipulation  |                                                 |
\*---------------------------------------------------------------------------*/
FoamFile
{
    version     2.0;
    format      ascii;
    arch        "LSB;label=32;scalar=64";
    class       volVectorField;
    location    "0";
    object      U_nn;
}
// * * * * * * * * * * * * * * * * * * * * * * * * * * * * * * * * * * * * * //

dimensions      [0 1 -1 0 0 0 0];

internalField   nonuniform List<vector> 
2000
(
(1.14391 -0.976719 0.00457459)
(1.12233 -0.865677 0.00676238)
(1.10213 -0.749108 0.00830131)
(1.08601 -0.636858 0.00916003)
(1.07529 -0.536188 0.00945112)
(1.06987 -0.451153 0.00932732)
(1.06858 -0.38283 0.00891689)
(1.06989 -0.330093 0.00830978)
(1.07241 -0.290516 0.00756879)
(1.07515 -0.261169 0.00674186)
(1.30277 -0.968691 0.00796099)
(1.27234 -0.860338 0.00967176)
(1.23863 -0.744341 0.0106665)
(1.20657 -0.631512 0.010961)
(1.17949 -0.529726 0.0107101)
(1.15875 -0.443376 0.0101027)
(1.14411 -0.373751 0.00929348)
(1.13441 -0.319892 0.00838464)
(1.12821 -0.27953 0.00743617)
(1.12423 -0.249862 0.00648173)
(1.44948 -0.924117 0.0102031)
(1.41175 -0.82125 0.0113213)
(1.36676 -0.709648 0.0117445)
(1.32125 -0.600463 0.0115257)
(1.28009 -0.501665 0.0108355)
(1.24578 -0.417638 0.00986707)
(1.21884 -0.349694 0.00877651)
(1.19851 -0.296992 0.00766483)
(1.18348 -0.257463 0.00658664)
(1.17236 -0.228535 0.00556591)
(1.5756 -0.842912 0.0109486)
(1.53237 -0.74896 0.0113988)
(1.47886 -0.646268 0.0112707)
(1.42303 -0.54557 0.0106379)
(1.37076 -0.454357 0.00965794)
(1.32532 -0.376659 0.00849852)
(1.28781 -0.313658 0.00729246)
(1.25788 -0.264609 0.00612473)
(1.23444 -0.227691 0.0050392)
(1.21618 -0.200651 0.00405153)
(1.67647 -0.730553 0.0101531)
(1.62978 -0.649194 0.00993558)
(1.57074 -0.55991 0.009337)
(1.50789 -0.472299 0.00843059)
(1.44759 -0.392911 0.0073358)
(1.39361 -0.32519 0.00617191)
(1.34749 -0.270115 0.00503086)
(1.3093 -0.227039 0.00396997)
(1.27827 -0.194432 0.0030166)
(1.2533 -0.170413 0.00217693)
(1.7514 -0.596246 0.00809528)
(1.70332 -0.530695 0.00729163)
(1.64151 -0.458414 0.00634989)
(1.57455 -0.387377 0.00532436)
(1.50893 -0.32294 0.00428144)
(1.44874 -0.267882 0.0032808)
(1.39592 -0.222975 0.00236479)
(1.35097 -0.187686 0.00155611)
(1.3135 -0.160784 0.000860673)
(1.28269 -0.140769 0.000272371)
(1.80247 -0.450031 0.00525657)
(1.75476 -0.402349 0.00400726)
(1.69234 -0.349141 0.00286823)
(1.62346 -0.296548 0.00186472)
(1.55462 -0.248698 0.00100693)
(1.49015 -0.207733 0.000294252)
(1.43243 -0.174244 -0.000282051)
(1.38238 -0.147815 -0.00073675)
(1.33999 -0.127498 -0.0010886)
(1.30467 -0.112161 -0.00135828)
(1.83288 -0.300402 0.00215059)
(1.78672 -0.271175 0.000623077)
(1.72509 -0.237434 -0.000572108)
(1.65581 -0.203524 -0.00144036)
(1.58534 -0.172433 -0.00202277)
(1.51828 -0.145736 -0.00237501)
(1.45744 -0.123875 -0.00255386)
(1.40412 -0.106552 -0.00261049)
(1.35859 -0.0930947 -0.00258791)
(1.32046 -0.0827167 -0.00252064)
(1.84563 -0.153264 -0.000804129)
(1.80163 -0.141699 -0.0024437)
(1.74165 -0.126413 -0.00357313)
(1.67305 -0.110118 -0.00422558)
(1.60231 -0.0947896 -0.00448579)
(1.53432 -0.0815219 -0.00445666)
(1.4722 -0.0706501 -0.0042364)
(1.41756 -0.0620123 -0.00390702)
(1.37081 -0.0552092 -0.00353092)
(1.33164 -0.0497907 -0.00315203)
(1.84301 -0.0120755 -0.00333332)
(1.80137 -0.0163716 -0.00494274)
(1.74361 -0.0175919 -0.00591564)
(1.67669 -0.0170139 -0.00630891)
(1.60708 -0.0157455 -0.00624255)
(1.53987 -0.0144858 -0.00585679)
(1.47838 -0.0135144 -0.00528134)
(1.42432 -0.0128255 -0.00461982)
(1.37815 -0.0122881 -0.00394625)
(1.33953 -0.0117576 -0.00330818)
(0.203556 -0.392807 -0.0246459)
(0.290721 -0.300719 -0.0189755)
(0.388185 -0.228757 -0.0127542)
(0.475921 -0.175377 -0.00734164)
(0.545207 -0.137878 -0.00343098)
(0.597054 -0.113009 -0.000981827)
(0.636725 -0.0974575 0.000408523)
(0.66939 -0.0880505 0.00116086)
(0.698391 -0.0819137 0.00157767)
(0.725299 -0.0767338 0.0018441)
(0.231929 -0.445773 -0.0233122)
(0.312012 -0.350959 -0.0180941)
(0.406129 -0.273998 -0.0122197)
(0.494663 -0.214539 -0.00691505)
(0.566966 -0.170948 -0.00294207)
(0.621775 -0.140601 -0.000405923)
(0.663075 -0.120461 0.00100546)
(0.695871 -0.107475 0.00169733)
(0.723929 -0.0988068 0.00199192)
(0.749337 -0.0920476 0.00209681)
(0.271272 -0.505096 -0.0215844)
(0.342918 -0.408064 -0.0168075)
(0.43169 -0.326442 -0.0113524)
(0.519178 -0.260869 -0.00626845)
(0.593434 -0.210768 -0.00232185)
(0.65092 -0.174264 0.000258778)
(0.693953 -0.148691 0.00167716)
(0.726972 -0.131158 0.00230128)
(0.753986 -0.118914 0.0024646)
(0.777613 -0.109566 0.00239787)
(0.323196 -0.569481 -0.0194947)
(0.385058 -0.470513 -0.0151287)
(0.466133 -0.384542 -0.0101466)
(0.549965 -0.313028 -0.00540036)
(0.624208 -0.256366 -0.00159312)
(0.683433 -0.213479 0.000970305)
(0.728068 -0.182143 0.00238315)
(0.761527 -0.159636 0.00295092)
(0.787675 -0.143259 0.0029994)
(0.809496 -0.130642 0.00277643)
(0.389442 -0.637568 -0.017065)
(0.44022 -0.536609 -0.0130705)
(0.511062 -0.446328 -0.00859268)
(0.588012 -0.36897 -0.00428969)
(0.659311 -0.305813 -0.000748499)
(0.718362 -0.256566 0.0017111)
(0.763821 -0.219497 0.00309252)
(0.79773 -0.192058 0.00362172)
(0.823348 -0.171546 0.00359131)
(0.843674 -0.155536 0.00325103)
(0.471931 -0.707906 -0.0142871)
(0.510527 -0.604646 -0.0106226)
(0.568703 -0.509769 -0.00665729)
(0.635312 -0.426402 -0.00287719)
(0.70003 -0.356687 0.000275214)
(0.755981 -0.301084 0.00252252)
(0.800497 -0.258369 0.00381756)
(0.834184 -0.226201 0.00430792)
(0.859327 -0.201848 0.00423189)
(0.878529 -0.182752 0.00381996)
(0.572501 -0.778601 -0.0111252)
(0.598219 -0.672741 -0.00775303)
(0.641733 -0.572833 -0.00428973)
(0.694803 -0.483091 -0.00107999)
(0.749137 -0.406573 0.00158216)
(0.798413 -0.344476 0.00350125)
(0.839279 -0.296084 0.00462384)
(0.871129 -0.25929 0.00503884)
(0.895132 -0.231359 0.00492299)
(0.913176 -0.209572 0.00446917)
(0.692216 -0.846666 -0.00755031)
(0.704932 -0.738208 -0.00444354)
(0.732482 -0.633018 -0.00146275)
(0.769512 -0.536608 0.00115746)
(0.810099 -0.453058 0.00325848)
(0.849103 -0.384319 0.00474451)
(0.883138 -0.33017 0.00559193)
(0.910786 -0.28876 0.00585992)
(0.932193 -0.257383 0.00567203)
(0.948383 -0.233188 0.00517512)
(0.830324 -0.907291 -0.00359921)
(0.830529 -0.79674 -0.000753242)
(0.841627 -0.686506 0.00175957)
(0.861077 -0.58357 0.00378829)
(0.885453 -0.493122 0.00528833)
(0.911188 -0.417878 0.00626298)
(0.935375 -0.358106 0.00673918)
(0.956231 -0.312209 0.00677341)
(0.973112 -0.27755 0.00645334)
(0.98621 -0.251188 0.00588275)
(0.98321 -0.953495 0.000557498)
(0.971887 -0.841906 0.00311174)
(0.966839 -0.727588 0.00515216)
(0.968221 -0.61903 0.00659307)
(0.975078 -0.522535 0.00748024)
(0.98558 -0.441553 0.0079026)
(0.99763 -0.376803 0.00794239)
(1.00945 -0.326937 0.00767052)
(1.01989 -0.28941 0.00715641)
(1.02845 -0.261249 0.00647048)
(0.750232 -0.0708282 0.0020655)
(0.773507 -0.0635008 0.00231177)
(0.795158 -0.0550151 0.00261678)
(0.81507 -0.0458545 0.00299249)
(0.833191 -0.0366692 0.00343755)
(0.849533 -0.0280597 0.00394265)
(0.864157 -0.0204635 0.00449531)
(0.877174 -0.0141271 0.00508327)
(0.888725 -0.00912873 0.00569628)
(0.898972 -0.00542094 0.00632626)
(0.908084 -0.0028741 0.00696652)
(0.91622 -0.00131179 0.00761072)
(0.923525 -0.000536659 0.00825188)
(0.930123 -0.000348089 0.00888184)
(0.936116 -0.000553449 0.00949096)
(0.941585 -0.000974884 0.0100682)
(0.94659 -0.00145287 0.0106014)
(0.951177 -0.00184756 0.0110775)
(0.955375 -0.00203869 0.0114829)
(0.959202 -0.00192448 0.011804)
(0.771883 -0.084882 0.00213071)
(0.792306 -0.0764018 0.0021881)
(0.81148 -0.0669507 0.0023179)
(0.829243 -0.0567747 0.00253709)
(0.845505 -0.046448 0.00284841)
(0.860244 -0.0366035 0.00324494)
(0.873497 -0.0277587 0.00371422)
(0.885342 -0.0202422 0.00424206)
(0.895893 -0.0141933 0.00481498)
(0.905285 -0.00959854 0.00542127)
(0.913659 -0.00633802 0.00605077)
(0.921157 -0.00422754 0.00669398)
(0.927906 -0.00305061 0.00734113)
(0.934017 -0.00258106 0.00798143)
(0.939579 -0.00259794 0.00860272)
(0.944662 -0.00289485 0.00919138)
(0.949317 -0.00328525 0.00973258)
(0.953577 -0.00360498 0.0102106)
(0.957464 -0.00371283 0.0106094)
(0.960987 -0.00348986 0.0109129)
(0.797207 -0.100178 0.00223175)
(0.814122 -0.0898553 0.00208567)
(0.830339 -0.0791348 0.00202682)
(0.845606 -0.0678814 0.00207668)
(0.859738 -0.0564585 0.00224243)
(0.872643 -0.0454426 0.00252045)
(0.884312 -0.0353914 0.00289955)
(0.894793 -0.0267094 0.00336438)
(0.904169 -0.0196062 0.00389844)
(0.91255 -0.0141136 0.00448593)
(0.920054 -0.0101299 0.00511229)
(0.9268 -0.00746635 0.00576379)
(0.932897 -0.00588676 0.00642679)
(0.938439 -0.00513662 0.00708687)
(0.9435 -0.00496293 0.00772841)
(0.948136 -0.00512701 0.00833448)
(0.952384 -0.00541221 0.008887)
(0.956265 -0.00562791 0.00936714)
(0.95979 -0.00561093 0.00975586)
(0.962958 -0.00522519 0.0100345)
(0.825774 -0.118088 0.00241746)
(0.838613 -0.104955 0.00206328)
(0.851393 -0.0923464 0.00180701)
(0.863821 -0.0797121 0.00167554)
(0.875587 -0.0670935 0.00168158)
(0.886483 -0.0548938 0.00182645)
(0.896417 -0.0436329 0.00210206)
(0.905382 -0.0337588 0.00249365)
(0.913431 -0.0255496 0.00298278)
(0.920652 -0.0190943 0.00354986)
(0.927145 -0.0143218 0.00417555)
(0.933011 -0.011047 0.00484098)
(0.938345 -0.00901726 0.00552745)
(0.943223 -0.00794907 0.00621571)
(0.947704 -0.00755437 0.00688556)
(0.951827 -0.0075584 0.00751572)
(0.955614 -0.00771073 0.00808398)
(0.959072 -0.0077913 0.00856771)
(0.962196 -0.00761299 0.00894447)
(0.964975 -0.00702158 0.00919268)
(0.856732 -0.139366 0.00272772)
(0.865273 -0.122629 0.00217534)
(0.874267 -0.107391 0.00172135)
(0.883535 -0.0928479 0.00139978)
(0.892712 -0.0787363 0.0012307)
(0.901464 -0.0652145 0.00122283)
(0.909574 -0.0526736 0.00137409)
(0.916949 -0.0415418 0.00167299)
(0.923587 -0.0321411 0.00210135)
(0.929547 -0.0246198 0.00263713)
(0.934915 -0.0189498 0.00325659)
(0.939786 -0.0149628 0.00393537)
(0.944243 -0.0123973 0.00464873)
(0.948356 -0.0109431 0.00537134)
(0.952171 -0.0102756 0.00607702)
(0.955711 -0.0100805 0.00673876)
(0.958982 -0.0100691 0.00732904)
(0.961975 -0.00998806 0.00782042)
(0.964669 -0.0096229 0.00818628)
(0.967038 -0.00879904 0.00840167)
(0.888837 -0.163275 0.00317314)
(0.893351 -0.142895 0.00244757)
(0.898521 -0.124631 0.00180861)
(0.904442 -0.107683 0.00129792)
(0.910835 -0.0916657 0.000943474)
(0.917312 -0.0765516 0.000763473)
(0.923543 -0.062573 0.0007652)
(0.929314 -0.0500774 0.000944344)
(0.934535 -0.0393843 0.00128645)
(0.93921 -0.0306836 0.00176967)
(0.943404 -0.0239945 0.00236747)
(0.947204 -0.0191773 0.00305055)
(0.950697 -0.0159725 0.00378786)
(0.953953 -0.0140492 0.00454694)
(0.957013 -0.0130473 0.00529422)
(0.959895 -0.0126102 0.00599535)
(0.962591 -0.0124067 0.00661585)
(0.965074 -0.0121453 0.00712201)
(0.967307 -0.0115798 0.00748185)
(0.969247 -0.0105119 0.0076662)
(0.921048 -0.18765 0.00373575)
(0.921981 -0.164509 0.0028699)
(0.92358 -0.143555 0.00207041)
(0.926182 -0.124128 0.00138493)
(0.929695 -0.105933 0.000847464)
(0.933788 -0.0889368 0.000484972)
(0.938077 -0.0732965 0.000315911)
(0.942245 -0.0592831 0.000346927)
(0.946089 -0.0471813 0.00057177)
(0.949528 -0.037193 0.000972842)
(0.952577 -0.0293741 0.00152394)
(0.955304 -0.0236171 0.00219279)
(0.957798 -0.0196742 0.00294278)
(0.960138 -0.0172013 0.00373417)
(0.962377 -0.015806 0.0045249)
(0.964532 -0.0150881 0.00527167)
(0.96659 -0.0146706 0.00593115)
(0.968515 -0.0142183 0.00646142)
(0.970251 -0.0134491 0.00682347)
(0.971738 -0.0121367 0.00698253)
(0.953427 -0.209863 0.00437719)
(0.950758 -0.18542 0.00340502)
(0.948974 -0.162795 0.00247561)
(0.948383 -0.141429 0.00164)
(0.949022 -0.121197 0.000935784)
(0.950664 -0.102219 0.00039542)
(0.952944 -0.0847362 4.69743e-05)
(0.955486 -0.0690333 -9.05588e-05)
(0.95799 -0.0553871 -1.14894e-05)
(0.960272 -0.0440026 0.000275502)
(0.962263 -0.0349572 0.000748925)
(0.963987 -0.0281706 0.00137699)
(0.965519 -0.0234097 0.00211986)
(0.966947 -0.0203229 0.00293151)
(0.968338 -0.0184884 0.00376129)
(0.969724 -0.0174628 0.00455581)
(0.971099 -0.0168192 0.00526105)
(0.972421 -0.016175 0.00582476)
(0.973624 -0.0152068 0.00619869)
(0.974633 -0.0136563 0.00634069)
(0.987281 -0.227581 0.00503279)
(0.98019 -0.203538 0.00399415)
(0.974762 -0.180642 0.00297123)
(0.970921 -0.158359 0.00201674)
(0.968651 -0.136699 0.00117178)
(0.967776 -0.115988 0.000471954)
(0.967966 -0.0966697 -4.85798e-05)
(0.968826 -0.0791742 -0.000360339)
(0.969986 -0.0638573 -0.000444645)
(0.971163 -0.0509642 -0.000297865)
(0.972193 -0.0406001 6.76992e-05)
(0.973024 -0.0327082 0.000625159)
(0.973691 -0.0270682 0.00133513)
(0.974272 -0.0233225 0.00214779)
(0.974848 -0.0210215 0.00300509)
(0.97547 -0.0196767 0.0038434)
(0.976147 -0.0188085 0.00459674)
(0.976842 -0.0179816 0.00520047)
(0.977487 -0.0168265 0.00559485)
(0.977993 -0.015049 0.00572809)
(1.02415 -0.238714 0.00559304)
(1.01137 -0.217046 0.00455201)
(1.00157 -0.195493 0.00348689)
(0.994101 -0.173599 0.00245393)
(0.988692 -0.151467 0.0015013)
(0.985128 -0.129614 0.000669481)
(0.983083 -0.108733 -3.07207e-06)
(0.982148 -0.0894989 -0.000479466)
(0.981901 -0.0724528 -0.00072972)
(0.981974 -0.057957 -0.000737059)
(0.982102 -0.0461839 -0.00050165)
(0.982141 -0.0371141 -4.14038e-05)
(0.982059 -0.0305431 0.000608938)
(0.981901 -0.0261069 0.00139942)
(0.981745 -0.0233268 0.00226707)
(0.981655 -0.0216665 0.0031391)
(0.981658 -0.0205882 0.00393726)
(0.981733 -0.019598 0.00458303)
(0.981815 -0.0182751 0.00500299)
(0.98181 -0.0162851 0.00513347)
(1.05754 -0.232857 0.00545813)
(1.04025 -0.216248 0.00451114)
(1.0267 -0.197998 0.00349837)
(1.01606 -0.178068 0.00248236)
(1.00792 -0.156892 0.00151769)
(1.002 -0.135263 0.000650372)
(0.99793 -0.114125 -7.75242e-05)
(0.995289 -0.0943663 -0.000625959)
(0.993637 -0.0766953 -0.00096029)
(0.992569 -0.0615811 -0.00105689)
(0.991764 -0.0492519 -0.000907706)
(0.991017 -0.0397106 -0.000522591)
(0.990235 -0.0327583 7.00812e-05)
(0.989418 -0.0280272 0.000823892)
(0.988618 -0.0250269 0.00167593)
(0.987897 -0.0232026 0.00254989)
(0.987288 -0.0219932 0.00336093)
(0.98678 -0.0208804 0.00402201)
(0.986318 -0.0194215 0.00445056)
(0.985811 -0.017266 0.00457459)
(1.08091 -0.216445 0.00464944)
(1.06209 -0.204922 0.00385385)
(1.04669 -0.190123 0.00295991)
(1.0342 -0.172494 0.00203552)
(1.02432 -0.152881 0.00113959)
(1.01679 -0.132368 0.000322403)
(1.01125 -0.112079 -0.00037132)
(1.00729 -0.0930093 -0.000901038)
(1.00447 -0.0759241 -0.00123244)
(1.0024 -0.061317 -0.00134123)
(1.00075 -0.049419 -0.00121681)
(0.999286 -0.0402258 -0.000864792)
(0.997882 -0.0335316 -0.000308641)
(0.996503 -0.0289684 0.000409772)
(0.995171 -0.0260541 0.00123085)
(0.993929 -0.0242472 0.00207988)
(0.992805 -0.023002 0.00287185)
(0.991791 -0.021815 0.00351803)
(0.99084 -0.0202567 0.00393332)
(0.989873 -0.0179874 0.00404289)
(1.09929 -0.200165 0.00367553)
(1.08009 -0.192492 0.00304779)
(1.0637 -0.180533 0.00229227)
(1.04997 -0.165 0.00147921)
(1.03877 -0.146982 0.000671674)
(1.02993 -0.127745 -7.56796e-05)
(1.02316 -0.108524 -0.000715413)
(1.01807 -0.0903751 -0.00120657)
(1.01426 -0.0740887 -0.00151563)
(1.01134 -0.0601692 -0.00161863)
(1.00897 -0.0488485 -0.00150376)
(1.00691 -0.0401198 -0.00117371)
(1.00499 -0.0337771 -0.000647839)
(1.00317 -0.0294581 3.64225e-05)
(1.00142 -0.0266925 0.000823428)
(0.999763 -0.0249545 0.00164131)
(0.998223 -0.0237158 0.00240644)
(0.996789 -0.0224895 0.00303006)
(0.995421 -0.0208607 0.00342587)
(0.994046 -0.0185024 0.00351725)
(1.1132 -0.184454 0.00261593)
(1.09443 -0.179469 0.002143)
(1.07778 -0.169723 0.00152498)
(1.06338 -0.156022 0.000829864)
(1.0513 -0.139565 0.000121996)
(1.04148 -0.121696 -0.00054152)
(1.03372 -0.103698 -0.00111174)
(1.02771 -0.0866425 -0.00154795)
(1.02307 -0.0713236 -0.0018179)
(1.01942 -0.0582411 -0.00189877)
(1.01644 -0.0476221 -0.00177863)
(1.01388 -0.0394583 -0.0014585)
(1.01155 -0.0335473 -0.000954649)
(1.00937 -0.0295366 -0.00030062)
(1.00729 -0.0269711 0.000452006)
(1.00532 -0.0253438 0.00123493)
(1.00345 -0.0241459 0.00196714)
(1.00168 -0.0229086 0.00256122)
(0.99996 -0.0212335 0.00293105)
(0.998233 -0.0188065 0.00299931)
(1.1232 -0.169526 0.00154153)
(1.10542 -0.166252 0.00119268)
(1.08908 -0.158136 0.000696081)
(1.07451 -0.145985 0.00011375)
(1.06196 -0.131005 -0.000492063)
(1.05149 -0.11454 -0.00106456)
(1.04301 -0.0978601 -0.0015552)
(1.03627 -0.0820203 -0.00192455)
(1.03094 -0.0677935 -0.00214234)
(1.0267 -0.0556625 -0.00218754)
(1.02321 -0.0458437 -0.00204903)
(1.02023 -0.0383257 -0.00172727)
(1.01756 -0.0329109 -0.00123653)
(1.0151 -0.029259 -0.000607233)
(1.01277 -0.0269334 0.000112831)
(1.01055 -0.0254482 0.000859223)
(1.00843 -0.0243165 0.0015543)
(1.00639 -0.0230895 0.00211313)
(1.00438 -0.0213859 0.00245099)
(1.00235 -0.018906 0.00249092)
(1.12993 -0.155451 0.000507817)
(1.11347 -0.153134 0.000245576)
(1.09783 -0.146155 -0.000154385)
(1.0835 -0.13528 -0.000637805)
(1.07085 -0.121661 -0.00114708)
(1.06004 -0.106588 -0.00162824)
(1.05109 -0.0912732 -0.00203509)
(1.04382 -0.0767234 -0.00233072)
(1.03797 -0.0636718 -0.00248758)
(1.03324 -0.0525726 -0.00248706)
(1.02933 -0.0436254 -0.0023197)
(1.02601 -0.0368129 -0.00198632)
(1.02306 -0.0319421 -0.00150026)
(1.02037 -0.0286865 -0.000889646)
(1.01785 -0.0266293 -0.000199031)
(1.01544 -0.0253082 0.000510955)
(1.01313 -0.0242599 0.00116646)
(1.01087 -0.0230574 0.00168583)
(1.00863 -0.0213376 0.0019867)
(1.00635 -0.0188157 0.00199345)
(1.13404 -0.142209 -0.000448349)
(1.11903 -0.140318 -0.000659952)
(1.10435 -0.134092 -0.000990637)
(1.09056 -0.124249 -0.00139386)
(1.0781 -0.111862 -0.00181786)
(1.06723 -0.0981305 -0.00221318)
(1.05804 -0.0841841 -0.00253747)
(1.05043 -0.0709563 -0.00275742)
(1.04421 -0.059125 -0.00284893)
(1.03911 -0.0491059 -0.00279642)
(1.03487 -0.0410755 -0.00259273)
(1.03127 -0.0350077 -0.00223994)
(1.0281 -0.0307131 -0.00175133)
(1.02523 -0.0278787 -0.00115366)
(1.02255 -0.0261086 -0.00048884)
(1.02 -0.0249655 0.000185998)
(1.01753 -0.0240111 0.000800925)
(1.01511 -0.0228415 0.00127804)
(1.01267 -0.0211131 0.00153808)
(1.01018 -0.0185562 0.00150759)
(1.13616 -0.129731 -0.00130857)
(1.12261 -0.127932 -0.00149889)
(1.10902 -0.122186 -0.0017855)
(1.09595 -0.113173 -0.0021283)
(1.0839 -0.101886 -0.00248136)
(1.07319 -0.0894228 -0.00280038)
(1.06396 -0.0768124 -0.00304765)
(1.05619 -0.0649022 -0.0031942)
(1.04973 -0.0543029 -0.00321988)
(1.04437 -0.0453832 -0.00311266)
(1.03988 -0.0382913 -0.00286822)
(1.03606 -0.0329888 -0.00249062)
(1.03271 -0.029288 -0.00199388)
(1.0297 -0.0268889 -0.00140421)
(1.0269 -0.0254166 -0.000761574)
(1.02424 -0.0244589 -0.000120012)
(1.02166 -0.0236039 0.00045437)
(1.01909 -0.0224716 0.000887665)
(1.0165 -0.0207386 0.00110422)
(1.01382 -0.0181509 0.00103337)
(1.13687 -0.11793 -0.0020699)
(1.12469 -0.116042 -0.00225952)
(1.11219 -0.110603 -0.00252221)
(1.09994 -0.102269 -0.00282251)
(1.08845 -0.0919601 -0.00311946)
(1.07806 -0.0806758 -0.0033737)
(1.06896 -0.0693432 -0.00355232)
(1.06117 -0.0587166 -0.00363087)
(1.05459 -0.0493327 -0.00359344)
(1.04907 -0.0415071 -0.00343182)
(1.04442 -0.0353548 -0.00314498)
(1.04044 -0.0308221 -0.00273947)
(1.03696 -0.0277207 -0.00223078)
(1.03383 -0.025762 -0.00164525)
(1.03094 -0.0245915 -0.00102158)
(1.02819 -0.0238223 -0.000411202)
(1.02551 -0.0230688 0.000123364)
(1.02284 -0.0219756 0.000512253)
(1.02012 -0.0202398 0.000683713)
(1.01728 -0.0176237 0.000570331)
(1.13666 -0.106716 -0.00274036)
(1.12569 -0.104675 -0.00294124)
(1.11424 -0.09945 -0.00319395)
(1.10284 -0.0916882 -0.003466)
(1.09198 -0.0822518 -0.00372017)
(1.08202 -0.0720539 -0.00392133)
(1.07316 -0.061924 -0.00404091)
(1.06546 -0.052525 -0.00405878)
(1.05888 -0.0443174 -0.00396318)
(1.05329 -0.0375603 -0.00374982)
(1.04853 -0.0323319 -0.00342118)
(1.04445 -0.0285601 -0.00298671)
(1.04087 -0.0260536 -0.00246388)
(1.03766 -0.0245336 -0.00187977)
(1.0347 -0.0236643 -0.00127242)
(1.03188 -0.0230834 -0.000691167)
(1.02913 -0.0224315 -0.000195268)
(1.02637 -0.0213777 0.00014936)
(1.02353 -0.0196402 0.000274998)
(1.02056 -0.0169973 0.000117788)
(1.13593 -0.0960137 -0.00333428)
(1.12599 -0.0938263 -0.00355129)
(1.11548 -0.0887826 -0.00380202)
(1.1049 -0.0815269 -0.0040557)
(1.09469 -0.072878 -0.00427775)
(1.08521 -0.0636763 -0.00443629)
(1.07667 -0.0546656 -0.00450633)
(1.06916 -0.0464233 -0.00447154)
(1.06265 -0.0393362 -0.00432397)
(1.05707 -0.0336062 -0.0040631)
(1.05228 -0.0292728 -0.00369495)
(1.04813 -0.0262425 -0.00323208)
(1.04449 -0.0243189 -0.00269429)
(1.04123 -0.0232304 -0.00210992)
(1.03821 -0.0226585 -0.00151686)
(1.03534 -0.0222641 -0.000962842)
(1.03253 -0.021713 -0.000504225)
(1.0297 -0.0206987 -0.000203179)
(1.02676 -0.0189602 -0.000123386)
(1.02368 -0.0162922 -0.000324973)
(1.13498 -0.0857639 -0.00386835)
(1.12589 -0.0834796 -0.00410146)
(1.1162 -0.0786225 -0.00435338)
(1.10636 -0.0718374 -0.00459444)
(1.09678 -0.06391 -0.00479188)
(1.08779 -0.0556221 -0.00491614)
(1.07961 -0.0476446 -0.00494505)
(1.07234 -0.0404801 -0.00486534)
(1.06598 -0.0344468 -0.00467236)
(1.06046 -0.0296912 -0.00436898)
(1.05569 -0.0262137 -0.00396466)
(1.05153 -0.0238979 -0.00347508)
(1.04786 -0.0225393 -0.00292262)
(1.04457 -0.0218717 -0.00233717)
(1.04152 -0.0215914 -0.00175693)
(1.03861 -0.0213808 -0.00122846)
(1.03575 -0.0209299 -0.000805622)
(1.03285 -0.0199556 -0.000547096)
(1.02983 -0.0182175 -0.000512622)
(1.02664 -0.0155264 -0.000758528)
(1.13403 -0.0759218 -0.00435882)
(1.12563 -0.0736086 -0.00460526)
(1.11663 -0.0689663 -0.00485828)
(1.10743 -0.0626381 -0.00508914)
(1.09842 -0.0553829 -0.00526646)
(1.08992 -0.0479359 -0.00536242)
(1.08211 -0.0409089 -0.00535689)
(1.07512 -0.0347404 -0.00523897)
(1.06894 -0.0296881 -0.0050067)
(1.06353 -0.0258473 -0.00466594)
(1.05881 -0.0231799 -0.00422923)
(1.05468 -0.0215458 -0.0037153)
(1.05102 -0.0207306 -0.00314914)
(1.04771 -0.0204708 -0.00256243)
(1.04464 -0.0204754 -0.00199398)
(1.04171 -0.020446 -0.00148957)
(1.03881 -0.020095 -0.00110095)
(1.03585 -0.0191622 -0.000883611)
(1.03276 -0.0174267 -0.000893508)
(1.02947 -0.0147156 -0.0011832)
(1.13323 -0.0664559 -0.00481983)
(1.12537 -0.0641849 -0.00507595)
(1.11693 -0.0597953 -0.00532819)
(1.10829 -0.0539234 -0.00554902)
(1.09979 -0.0473043 -0.00570832)
(1.09172 -0.0406359 -0.00577967)
(1.08427 -0.0344823 -0.00574446)
(1.07755 -0.0292296 -0.00559359)
(1.07158 -0.0250838 -0.00532724)
(1.06631 -0.0220944 -0.00495371)
(1.06169 -0.0201875 -0.00448831)
(1.05761 -0.0191988 -0.00395258)
(1.05397 -0.0189028 -0.00337403)
(1.05068 -0.0190365 -0.00278624)
(1.0476 -0.0193189 -0.00222882)
(1.04465 -0.0194685 -0.00174713)
(1.04173 -0.0192185 -0.00139112)
(1.03872 -0.0183296 -0.00121341)
(1.03557 -0.0166002 -0.0012664)
(1.0322 -0.013873 -0.00159896)
(1.13267 -0.0573438 -0.00526265)
(1.12524 -0.05518 -0.00552519)
(1.11726 -0.0510817 -0.00577438)
(1.10907 -0.045672 -0.0059842)
(1.101 -0.0396625 -0.00612598)
(1.09331 -0.0337196 -0.00617457)
(1.08619 -0.0283698 -0.00611265)
(1.07974 -0.0239572 -0.0059325)
(1.07397 -0.0206451 -0.00563596)
(1.06887 -0.0184434 -0.00523339)
(1.06435 -0.0172455 -0.00474245)
(1.06035 -0.0168644 -0.0041872)
(1.05677 -0.0170623 -0.00359756)
(1.0535 -0.0175746 -0.00300892)
(1.05044 -0.0181278 -0.00246188)
(1.04748 -0.0184552 -0.00200157)
(1.04453 -0.0183082 -0.00167648)
(1.04149 -0.0174671 -0.00153666)
(1.03828 -0.0157485 -0.00163121)
(1.03483 -0.0130103 -0.00200543)
(1.13241 -0.0485697 -0.00569553)
(1.12532 -0.0465674 -0.00596243)
(1.11771 -0.0427944 -0.00620681)
(1.10989 -0.0378539 -0.00640451)
(1.10217 -0.0324331 -0.00652851)
(1.0948 -0.0271707 -0.00655504)
(1.08797 -0.0225628 -0.00646794)
(1.08175 -0.0189207 -0.00626068)
(1.07619 -0.0163732 -0.00593649)
(1.07124 -0.0148972 -0.00550743)
(1.06684 -0.0143578 -0.00499321)
(1.06294 -0.0145464 -0.00442013)
(1.05942 -0.0152127 -0.00382027)
(1.05619 -0.0160887 -0.00323081)
(1.05315 -0.0169066 -0.00269335)
(1.0502 -0.0174113 -0.00225296)
(1.04724 -0.0173707 -0.00195695)
(1.04417 -0.0165827 -0.00185307)
(1.04091 -0.0148809 -0.00198738)
(1.03739 -0.012138 -0.0024018)
(1.13247 -0.0401213 -0.00612392)
(1.12566 -0.0383229 -0.00639464)
(1.11834 -0.0349017 -0.00663359)
(1.11082 -0.0304355 -0.00681866)
(1.10338 -0.025585 -0.00692467)
(1.09628 -0.0209636 -0.00692935)
(1.08967 -0.0170428 -0.00681773)
(1.08366 -0.014108 -0.00658442)
(1.07827 -0.0122615 -0.00623387)
(1.07347 -0.0114532 -0.00577965)
(1.0692 -0.0115238 -0.00524331)
(1.06539 -0.0122455 -0.00465316)
(1.06195 -0.0133554 -0.00404327)
(1.05877 -0.0145813 -0.0034525)
(1.05577 -0.0156585 -0.00292342)
(1.05283 -0.0163414 -0.00250121)
(1.04987 -0.0164117 -0.00223214)
(1.04677 -0.0156834 -0.00216198)
(1.04348 -0.0140059 -0.002334)
(1.0399 -0.0112655 -0.0027869)
(1.13285 -0.0319883 -0.00655092)
(1.12627 -0.0304249 -0.00682642)
(1.11921 -0.0273739 -0.00706069)
(1.11192 -0.023383 -0.00723369)
(1.10471 -0.0190847 -0.00732218)
(1.0978 -0.0150685 -0.00730541)
(1.09138 -0.0117853 -0.00716969)
(1.08554 -0.00950107 -0.00691071)
(1.08029 -0.0082975 -0.00653417)
(1.07562 -0.0081035 -0.00605507)
(1.07146 -0.00873927 -0.00549665)
(1.06775 -0.00995978 -0.00488913)
(1.06438 -0.0114905 -0.00426846)
(1.06127 -0.0130537 -0.00367508)
(1.05831 -0.014386 -0.00315256)
(1.05539 -0.0152493 -0.00274623)
(1.05243 -0.0154367 -0.00250156)
(1.04932 -0.0147762 -0.00246252)
(1.04599 -0.0131315 -0.00266983)
(1.04237 -0.0104019 -0.00315922)
(1.13354 -0.02416 -0.00697781)
(1.12718 -0.0228537 -0.00726028)
(1.12032 -0.020184 -0.00749193)
(1.11323 -0.016665 -0.0076547)
(1.10619 -0.0128995 -0.00772717)
(1.09945 -0.00945425 -0.00769011)
(1.09316 -0.00676321 -0.00753103)
(1.08743 -0.00507775 -0.00724673)
(1.0823 -0.00446461 -0.00684411)
(1.07773 -0.00483636 -0.00633962)
(1.07367 -0.00599657 -0.00575821)
(1.07004 -0.00768518 -0.00513196)
(1.06675 -0.00961636 -0.00449869)
(1.0637 -0.0115063 -0.0039004)
(1.06078 -0.0130915 -0.00338173)
(1.0579 -0.0141387 -0.00298825)
(1.05495 -0.0144508 -0.00276477)
(1.05183 -0.0138676 -0.00275372)
(1.04848 -0.0122657 -0.00299348)
(1.04481 -0.0095564 -0.00351699)
(1.13453 -0.0166244 -0.00740458)
(1.12836 -0.0155908 -0.00769705)
(1.12169 -0.0133077 -0.00792923)
(1.11477 -0.0102533 -0.00808479)
(1.10788 -0.00699958 -0.00814394)
(1.10124 -0.00409161 -0.00808881)
(1.09505 -0.0019495 -0.00790795)
(1.0894 -0.000814614 -0.00759917)
(1.08434 -0.000743609 -0.00717049)
(1.07984 -0.00163715 -0.00663981)
(1.07585 -0.00328535 -0.00603383)
(1.07229 -0.00541498 -0.00538659)
(1.06907 -0.00772947 -0.00473784)
(1.06608 -0.00993831 -0.00413127)
(1.06321 -0.0117761 -0.00361268)
(1.06036 -0.0130131 -0.00322804)
(1.05743 -0.0134592 -0.00302171)
(1.05431 -0.0129643 -0.00303478)
(1.05094 -0.0114165 -0.00330353)
(1.04724 -0.0087381 -0.00385829)
(1.30791 -0.0106451 -0.00273131)
(1.29978 -0.0441139 -0.00280509)
(1.28987 -0.0728976 -0.00247518)
(1.27719 -0.0984005 -0.00166767)
(1.26024 -0.123139 -0.000401383)
(1.23752 -0.149165 0.00119471)
(1.20815 -0.176536 0.00288208)
(1.17238 -0.202914 0.00436755)
(1.13181 -0.224539 0.00540177)
(1.0891 -0.237943 0.00586921)
(1.28208 -0.00905674 -0.00221613)
(1.27398 -0.0382521 -0.00247707)
(1.26526 -0.0635357 -0.0024139)
(1.25534 -0.0859011 -0.0019473)
(1.24301 -0.107379 -0.0010651)
(1.22676 -0.129909 0.000166422)
(1.2053 -0.154054 0.00159063)
(1.1781 -0.178422 0.00298263)
(1.14581 -0.200145 0.00411271)
(1.11013 -0.216099 0.00482172)
(1.26117 -0.00747925 -0.00177139)
(1.25309 -0.0332752 -0.00217402)
(1.24513 -0.0559397 -0.00231214)
(1.237 -0.0761387 -0.00210771)
(1.22778 -0.0954132 -0.00153643)
(1.21611 -0.115396 -0.000629841)
(1.20057 -0.13682 0.000512946)
(1.18018 -0.158921 0.00172966)
(1.15486 -0.17962 0.00283077)
(1.12558 -0.196335 0.00365436)
(1.24429 -0.00586368 -0.00139505)
(1.23628 -0.0288757 -0.00190659)
(1.2288 -0.0494889 -0.00219794)
(1.2218 -0.0681271 -0.00219408)
(1.21461 -0.0859027 -0.0018682)
(1.20608 -0.104074 -0.00123583)
(1.19481 -0.123325 -0.000360566)
(1.17963 -0.143252 0.00064434)
(1.16001 -0.162384 0.00163368)
(1.13633 -0.178708 0.00246563)
(1.23069 -0.00419123 -0.00108123)
(1.22278 -0.0248586 -0.00167826)
(1.21563 -0.0437813 -0.00208862)
(1.20935 -0.0612128 -0.00223956)
(1.20344 -0.0779196 -0.00210537)
(1.19696 -0.0947971 -0.00169637)
(1.18866 -0.112361 -0.00105736)
(1.17734 -0.130363 -0.0002682)
(1.1622 -0.147756 0.00056456)
(1.14323 -0.163024 0.00132798)
(1.2197 -0.0024601 -0.000822278)
(1.21197 -0.0211021 -0.00148806)
(1.20507 -0.0385628 -0.00199353)
(1.19922 -0.0549791 -0.0022666)
(1.19409 -0.0708524 -0.00228296)
(1.18891 -0.0867628 -0.00205267)
(1.18259 -0.103017 -0.00161258)
(1.174 -0.119387 -0.00102286)
(1.16226 -0.135083 -0.00036146)
(1.14709 -0.148976 0.000286921)
(1.21082 -0.00067748 -0.000610173)
(1.2033 -0.0175316 -0.00133249)
(1.19662 -0.0336767 -0.00191647)
(1.19105 -0.0491707 -0.00228907)
(1.18637 -0.0643181 -0.00242618)
(1.18197 -0.0794446 -0.00233879)
(1.17692 -0.0946518 -0.00206167)
(1.17018 -0.109658 -0.00164531)
(1.16092 -0.123806 -0.00114946)
(1.14869 -0.136235 -0.00063632)
(1.2036 0.00114511 -0.000437346)
(1.19635 -0.014102 -0.00120699)
(1.18987 -0.0290283 -0.00185781)
(1.18449 -0.0436376 -0.00231458)
(1.18007 -0.0580906 -0.00255174)
(1.17611 -0.0725178 -0.00258057)
(1.17181 -0.0868433 -0.00243591)
(1.16629 -0.1007 -0.0021647)
(1.15875 -0.113482 -0.00181699)
(1.14872 -0.124496 -0.0014398)
(1.19772 0.00299464 -0.000297113)
(1.19077 -0.010787 -0.00110679)
(1.1845 -0.0245622 -0.00181596)
(1.17926 -0.0382962 -0.00234644)
(1.17498 -0.0520461 -0.00266981)
(1.17124 -0.0657976 -0.0027961)
(1.16737 -0.0793335 -0.00276028)
(1.16259 -0.0921995 -0.00260864)
(1.1562 -0.10379 -0.00238725)
(1.14774 -0.113506 -0.00213465)
(1.1929 0.0048583 -0.000183873)
(1.18628 -0.00757171 -0.00102745)
(1.18022 -0.0202466 -0.00178843)
(1.1751 -0.0331034 -0.00238535)
(1.1709 -0.0461243 -0.00278581)
(1.16726 -0.0591909 -0.00299708)