/*--------------------------------*- C++ -*----------------------------------*\
| =========                 |                                                 |
| \\      /  F ield         | OpenFOAM: The Open Source CFD Toolbox           |
|  \\    /   O peration     | Version:  2112                                  |
|   \\  /    A nd           | Website:  www.openfoam.com                      |
|    \\/     M anipulation  |                                                 |
\*---------------------------------------------------------------------------*/
FoamFile
{
    version     2.0;
    format      ascii;
    arch        "LSB;label=32;scalar=64";
    class       volScalarField;
    location    "0";
    object      error_grad_c;
}
// * * * * * * * * * * * * * * * * * * * * * * * * * * * * * * * * * * * * * //

dimensions      [0 -1 0 0 0 0 0];

internalField   nonuniform List<scalar> 
4096
(
0.957349
1.50462
1.46438
1.41712
1.36303
1.30271
1.23722
1.16806
1.09706
1.0262
0.957318
0.891992
0.831292
0.775885
0.725946
0.623414
1.1527
1.66176
1.63341
1.59834
1.55636
1.50768
1.45292
1.39315
1.32991
1.26496
1.20011
1.13695
1.07676
1.02038
0.968269
0.885025
1.14685
1.67284
1.64288
1.60547
1.56033
1.50763
1.44806
1.38294
1.31416
1.24388
1.17433
1.10734
1.04432
0.986104
0.933004
0.854187
1.13558
1.67857
1.64682
1.60685
1.55827
1.50118
1.43639
1.36551
1.29084
1.21508
1.14086
1.07034
1.00499
0.945538
0.89214
0.817875
1.1188
1.67826
1.64447
1.60173
1.54945
1.4877
1.4174
1.34048
1.25977
1.17852
1.09988
1.02627
0.959207
0.899237
0.846266
0.776575
1.09669
1.67135
1.63534
1.58962
1.5335
1.46699
1.39112
1.30819
1.22156
1.13511
1.05248
0.97639
0.908279
0.848506
0.796626
0.731283
1.06979
1.65758
1.61915
1.57039
1.51049
1.43943
1.35837
1.2699
1.17793
1.08693
1.001
0.923048
0.854503
0.795438
0.745088
0.683562
1.03895
1.63704
1.59612
1.54444
1.48113
1.40613
1.32073
1.22782
1.13167
1.03718
0.948809
0.869659
0.801066
0.742914
0.694168
0.635456
1.00527
1.6102
1.56691
1.51266
1.4466
1.36874
1.28044
1.18475
1.08611
0.989604
0.899872
0.820096
0.751601
0.694201
0.646722
0.58931
0.96994
1.57795
1.53256
1.47633
1.4085
1.32917
1.23978
1.14335
1.04427
0.947519
0.857641
0.777801
0.709407
0.652341
0.605475
0.547417
0.934096
1.54139
1.49437
1.43693
1.36845
1.2892
1.2006
1.10554
1.00809
0.91288
0.824133
0.744893
0.676645
0.619491
0.572496
0.511627
0.89871
1.50177
1.45369
1.39586
1.32789
1.25012
1.16397
1.07208
0.978056
0.885945
0.799537
0.721643
0.653812
0.596357
0.54869
0.48302
0.864449
1.46028
1.41177
1.35436
1.28785
1.21269
1.13024
1.04278
0.953425
0.865597
0.782543
0.706788
0.639857
0.582274
0.533783
0.461705
0.831799
1.41799
1.36964
1.31333
1.24901
1.17723
1.09922
1.01693
0.932956
0.850126
0.771165
0.69823
0.632796
0.57554
0.526435
0.44699
0.800959
1.37576
1.32807
1.27338
1.21176
1.14379
1.07055
0.993697
0.915361
0.837842
0.763377
0.693799
0.630449
0.574061
0.524817
0.437607
0.771165
1.33426
1.28746
1.23384
1.17364
1.10755
1.03675
0.962913
0.888041
0.814267
0.743596
0.677686
0.617648
0.564114
0.517165
0.423409
1.35711
1.79431
1.76436
1.72814
1.68541
1.63622
1.58109
1.52094
1.45717
1.39143
1.32544
1.26079
1.19872
1.14014
1.08554
1.00535
1.50801
1.93938
1.92256
1.89958
1.86964
1.83211
1.78671
1.73378
1.67424
1.60966
1.54202
1.47338
1.40567
1.34035
1.27846
1.20023
1.50733
1.95706
1.94163
1.91962
1.88997
1.85174
1.80447
1.74837
1.6845
1.61477
1.54168
1.46781
1.39545
1.32626
1.26135
1.18495
1.50145
1.96944
1.95546
1.93455
1.90534
1.86661
1.81759
1.75831
1.68997
1.61492
1.53623
1.45711
1.38024
1.3075
1.23998
1.16532
1.4897
1.97516
1.96245
1.94256
1.91384
1.87472
1.82408
1.76176
1.68902
1.60868
1.52453
1.44044
1.35953
1.28381
1.2143
1.14134
1.4716
1.97286
1.96095
1.94172
1.91327
1.87373
1.82159
1.75646
1.67967
1.59451
1.50551
1.41719
1.33307
1.25522
1.18452
1.11327
1.44698
1.96134
1.94953
1.93027
1.90154
1.86125
1.80762
1.74006
1.65996
1.57099
1.47834
1.38708
1.30101
1.22214
1.1512
1.08177
1.41608
1.94001
1.92731
1.90705
1.8772
1.83557
1.78033
1.71085
1.62854
1.53736
1.44291
1.35053
1.26406
1.18547
1.11528
1.04774
1.37954
1.90893
1.89429
1.872
1.84009
1.79648
1.73949
1.66865
1.58554
1.4942
1.40016
1.30872
1.22355
1.1465
1.07797
1.01233
1.33837
1.86895
1.85152
1.82639
1.79172
1.74574
1.68708
1.61566
1.53327
1.44376
1.35227
1.26364
1.18126
1.1068
1.04064
0.976716
1.29384
1.82164
1.80095
1.77259
1.73498
1.68671
1.62693
1.55591
1.47558
1.3895
1.30214
1.21768
1.13911
1.06795
1.00457
0.94193
1.24725
1.76893
1.74496
1.7135
1.6733
1.62335
1.56327
1.49367
1.41649
1.33485
1.25251
1.17295
1.09871
1.03117
0.970762
0.908758
1.19985
1.71293
1.686
1.65194
1.60984
1.55909
1.49966
1.43236
1.35902
1.28233
1.20534
1.13091
1.06115
0.99732
0.93988
0.877635
1.15272
1.65548
1.62614
1.5902
1.54706
1.49639
1.43841
1.37405
1.30494
1.23331
1.16165
1.09225
1.0269
0.966705
0.912149
0.848761
1.10667
1.5981
1.56703
1.52997
1.48656
1.43673
1.38081
1.31975
1.25497
1.1883
1.12175
1.05714
0.995999
0.939289
0.887501
0.822096
1.06237
1.54168
1.5085
1.46927
1.4239
1.3727
1.31642
1.25624
1.19373
1.13066
1.06874
1.00942
0.953748
0.902357
0.855463
0.789295
1.33312
1.78002
1.74939
1.71196
1.66734
1.61559
1.55724
1.49344
1.4259
1.3566
1.28762
1.22072
1.15727
1.09813
1.04368
0.969712
1.49
1.93339
1.91823
1.89663
1.86753
1.83002
1.78364
1.72859
1.66591
1.5975
1.52577
1.45329
1.38229
1.3144
1.25069
1.17635
1.49029
1.95527
1.9421
1.92205
1.8937
1.85573
1.80734
1.74848
1.68038
1.60545
1.52685
1.44789
1.37128
1.2989
1.23185
1.15916
1.48521
1.97203
1.96102
1.94279
1.91555
1.87751
1.82726
1.76453
1.69063
1.6086
1.52263
1.43691
1.35474
1.27821
1.20827
1.13713
1.47403
1.98202
1.97304
1.95669
1.93076
1.89291
1.84111
1.77457
1.69466
1.60523
1.51168
1.41932
1.33205
1.252
1.17991
1.11026
1.45623
1.98349
1.97604
1.9612
1.93642
1.89879
1.84564
1.77556
1.68988
1.59326
1.49256
1.3943
1.30287
1.22031
1.14704
1.07901
1.43162
1.97491
1.96803
1.95374
1.92931
1.89145
1.83691
1.76375
1.67312
1.57047
1.46406
1.36148
1.26744
1.18378
1.11045
1.04424
1.40046
1.95528
1.94758
1.93239
1.90689
1.86768
1.81131
1.73555
1.64152
1.5352
1.42575
1.32136
1.2268
1.1436
1.0714
1.00724
1.36352
1.9245
1.91446
1.8967
1.86845
1.82645
1.76749
1.68966
1.59434
1.48768
1.37876
1.27562
1.18279
1.10159
1.03147
0.96954
1.32194
1.88354
1.86989
1.84818
1.81589
1.7701
1.70825
1.62922
1.53492
1.43118
1.32618
1.22704
1.13783
1.0598
0.99243
0.93262
1.27713
1.83429
1.81629
1.79006
1.75332
1.70378
1.63969
1.56084
1.46957
1.37111
1.27222
1.1788
1.09437
1.02014
0.955806
0.897668
1.23049
1.77916
1.75679
1.72619
1.68553
1.63321
1.56825
1.49114
1.40435
1.31235
1.22047
1.13342
1.0542
0.98398
0.922698
0.865403
1.18335
1.72061
1.69434
1.66014
1.61668
1.56293
1.49856
1.42445
1.34297
1.25773
1.17294
1.09227
1.01821
0.951928
0.893563
0.836094
1.13674
1.66079
1.6314
1.59465
1.54961
1.49572
1.43312
1.3628
1.28688
1.20828
1.1302
1.05559
0.986475
0.923963
0.868364
0.809628
1.09143
1.60139
1.56977
1.53147
1.48595
1.43296
1.37287
1.30673
1.2363
1.16391
1.09206
1.02306
0.958599
0.899688
0.846738
0.785698
1.04758
1.54221
1.50714
1.46524
1.41632
1.36072
1.2993
1.23357
1.16552
1.09736
1.03122
0.96875
0.911092
0.858775
0.811837
0.750748
1.30137
1.75887
1.72721
1.68814
1.6412
1.58637
1.5243
1.45642
1.38479
1.31186
1.24006
1.17139
1.10724
1.04833
0.994865
0.927219
1.46454
1.92065
1.907
1.88669
1.85838
1.8209
1.7735
1.71624
1.65029
1.57793
1.50213
1.42597
1.35201
1.28205
1.21713
1.14651
1.46518
1.94649
1.93547
1.91736
1.89039
1.85279
1.80323
1.74143
1.66874
1.58814
1.50377
1.41971
1.33919
1.26423
1.19575
1.12661
1.46033
1.96752
1.95946
1.94412
1.91915
1.88208
1.8307
1.76417
1.68386
1.59384
1.4998
1.40722
1.3201
1.24048
1.16904
1.10123
1.44921
1.98181
1.97677
1.96445
1.94203
1.90612
1.85344
1.78214
1.69353
1.593
1.48845
1.3872
1.29388
1.2104
1.13691
1.07045
1.43125
1.98725
1.98473
1.97515
1.95525
1.92085
1.86742
1.79171
1.69458
1.58301
1.46787
1.35857
1.26019
1.17414
1.09979
1.03488
1.40631
1.98184
1.9806
1.97256
1.95421
1.92079
1.86674
1.78732
1.68246
1.56078
1.43645
1.32098
1.21951
1.13261
1.05879
0.995755
1.37475
1.96412
1.96227
1.95362
1.93457
1.90018
1.84445
1.7618
1.65146
1.52313
1.3935
1.27534
1.17348
1.08763
1.01561
0.954905
1.33746
1.93377
1.92912
1.91722
1.8945
1.85614
1.7965
1.71059
1.59818
1.46929
1.34051
1.22425
1.12488
1.04176
0.97248
0.914427
1.29577
1.89187
1.88253
1.86522
1.83649
1.79194
1.72702
1.63849
1.52783
1.40442
1.28223
1.17181
1.07714
0.997812
0.931672
0.876241
1.2512
1.8407
1.82569
1.80203
1.7666
1.71589
1.64672
1.55786
1.45212
1.33758
1.2249
1.12229
1.03334
0.958113
0.895039
0.841692
1.20524
1.7832
1.76248
1.73281
1.6917
1.63658
1.56567
1.47915
1.38029
1.27558
1.17284
1.07833
0.995194
0.923954
0.863624
0.81135
1.15916
1.72229
1.69657
1.66212
1.61704
1.55975
1.4895
1.40722
1.31595
1.22078
1.12742
1.04056
0.962983
0.895466
0.837563
0.785105
1.11391
1.66039
1.6308
1.59301
1.54578
1.48822
1.42027
1.34311
1.25941
1.17299
1.08809
1.00832
0.935958
0.871986
0.816333
0.762387
1.07016
1.59936
1.56703
1.5273
1.47938
1.4229
1.35816
1.28637
1.20974
1.13118
1.05384
0.9805
0.913062
0.852519
0.799098
0.742454
1.02647
1.53707
1.49978
1.45479
1.40183
1.34119
1.27393
1.20194
1.12776
1.05418
0.983766
0.918462
0.859398
0.80692
0.760798
0.705058
1.26196
1.73049
1.69733
1.65616
1.60637
1.54792
1.48163
1.40924
1.33331
1.25679
1.18253
1.11272
1.0487
0.990944
0.939395
0.878145
1.43128
1.90018
1.88766
1.8683
1.84055
1.80293
1.75442
1.69493
1.62572
1.54951
1.4699
1.39052
1.31427
1.24303
1.17769
1.11068
1.43154
1.9294
1.92011
1.90363
1.87783
1.84047
1.78968
1.7248
1.64725
1.56082
1.47071
1.38198
1.29834
1.22176
1.15288
1.08722
1.42619
1.95423
1.94877
1.93607
1.91335
1.8773
1.82479
1.75409
1.66663
1.56776
1.46522
1.36615
1.27499
1.19355
1.12192
1.05751
1.41442
1.97256
1.9712
1.96295
1.94434
1.91085
1.85757
1.78091
1.68179
1.56795
1.45113
1.34119
1.24309
1.15792
1.08477
1.02161
1.39572
1.9819
1.98425
1.98037
1.96634
1.93649
1.88369
1.80151
1.68936
1.5582
1.42591
1.30567
1.20221
1.11509
1.04199
0.980402
1.37003
1.97973
1.98435
1.98347
1.97303
1.94655
1.89518
1.80904
1.68403
1.53476
1.38773
1.25953
1.15334
1.06649
0.995127
0.935628
1.33789
1.9641
1.96847
1.96759
1.95736
1.93111
1.87947
1.79049
1.65587
1.49284
1.33633
1.20484
1.0993
1.0149
0.946617
0.889857
1.30038
1.93437
1.93543
1.93052
1.9154
1.8834
1.8256
1.73115
1.59308
1.42931
1.27449
1.14626
1.04459
0.964116
0.89954
0.846
1.25898
1.8917
1.88683
1.87454
1.85043
1.80817
1.74009
1.63915
1.50468
1.35304
1.21012
1.09023
0.994297
0.918081
0.856947
0.806593
1.21535
1.83886
1.8267
1.80571
1.77175
1.71956
1.64375
1.54135
1.41584
1.28039
1.15227
1.04217
0.952119
0.879604
0.821054
0.773182
1.17094
1.77935
1.75998
1.73103
1.68908
1.63036
1.55188
1.45332
1.33911
1.21904
1.10464
1.00382
0.919126
0.84956
0.792718
0.746038
1.1269
1.71657
1.69107
1.65598
1.60882
1.54722
1.46991
1.3778
1.27497
1.16845
1.06606
0.973716
0.89406
0.827099
0.771462
0.7244
1.084
1.65323
1.62308
1.58391
1.53406
1.47227
1.39824
1.31333
1.2209
1.12599
1.03407
0.94951
0.87478
0.81048
0.756002
0.706987
1.04275
1.59121
1.55789
1.51644
1.46583
1.40549
1.33568
1.2578
1.17452
1.0895
1.00663
0.929193
0.859315
0.797879
0.744767
0.692499
0.999126
1.52578
1.48594
1.43749
1.37998
1.31373
1.23998
1.1611
1.08027
1.00097
0.926349
0.858603
0.798798
0.746992
0.702598
0.652428
1.2154
1.69476
1.65966
1.61589
1.56275
1.50025
1.42934
1.35218
1.27188
1.19199
1.11578
1.04556
0.982524
0.926876
0.878149
0.82325
1.39027
1.87118
1.8591
1.8401
1.8124
1.7743
1.72452
1.66282
1.59059
1.51097
1.42821
1.34647
1.26893
1.19741
1.13261
1.06922
1.38934
1.90282
1.89445
1.87885
1.85359
1.81602
1.76374
1.6957
1.61339
1.52139
1.4262
1.33387
1.24839
1.1715
1.10346
1.04144
1.38265
1.93058
1.92678
1.91587
1.89466
1.85918
1.80528
1.73021
1.63518
1.52716
1.41656
1.31222
1.21877
1.13735
1.06719
1.00643
1.36945
1.95222
1.95355
1.94848
1.93311
1.90186
1.8479
1.76531
1.65403
1.52504
1.39575
1.27878
1.17848
1.09424
1.02368
0.964293
1.34935
1.96498
1.97122
1.97241
1.96423
1.93944
1.88773
1.79792
1.66615
1.51012
1.35966
1.23135
1.1269
1.04252
0.973725
0.916139
1.32246
1.96585
1.97547
1.98159
1.98003
1.96256
1.91577
1.82196
1.66682
1.47749
1.3059
1.17024
1.06574
0.984279
0.9194
0.864328
1.28957
1.95233
1.96223
1.96935
1.96983
1.95538
1.91224
1.82099
1.6467
1.42372
1.23699
1.10032
0.999913
0.923756
0.864111
0.812403
1.25199
1.92345
1.92957
1.93184
1.92594
1.90311
1.84962
1.74822
1.56761
1.34389
1.16134
1.03097
0.937003
0.866709
0.812185
0.7644
1.21143
1.88047
1.87928
1.87173
1.85262
1.81273
1.73913
1.61916
1.44742
1.25576
1.09356
0.972997
0.884804
0.81877
0.767767
0.723761
1.16955
1.82657
1.81642
1.79741
1.76427
1.70921
1.62344
1.5015
1.34836
1.1867
1.04433
0.932361
0.847615
0.783306
0.733543
0.692297
1.1277
1.76586
1.74704
1.71796
1.67423
1.61053
1.52219
1.40823
1.27488
1.13694
1.01122
0.906895
0.824456
0.760244
0.710003
0.669772
1.08678
1.70214
1.67617
1.63973
1.58966
1.52278
1.43712
1.33359
1.21754
1.09858
0.987323
0.890823
0.811128
0.746953
0.695636
0.654467
1.0473
1.63831
1.60707
1.566
1.513
1.44639
1.36563
1.27228
1.17051
1.06677
0.967974
0.879358
0.803363
0.739999
0.687953
0.644076
1.0095
1.57625
1.54155
1.49803
1.44441
1.37993
1.30479
1.22058
1.13053
1.03904
0.950843
0.869777
0.798114
0.73651
0.684487
0.636521
0.966028
1.50814
1.46547
1.41325
1.35087
1.27864
1.19802
1.11184
1.02402
0.938863
0.860139
0.790317
0.730368
0.679998
0.638141
0.59359
1.16267
1.65202
1.61454
1.56779
1.511
1.4442
1.36858
1.2867
1.20227
1.11944
1.04184
0.971898
0.910627
0.857823
0.812612
0.763836
1.34205
1.83317
1.82069
1.80115
1.77272
1.73355
1.68222
1.61844
1.54371
1.46157
1.37682
1.29403
1.21649
1.14587
1.08264
1.02297
1.33909
1.86598
1.85733
1.84135
1.81547
1.77676
1.72251
1.65138
1.56488
1.46839
1.36962
1.27543
1.18985
1.11429
1.04844
0.990298
1.33026
1.89536
1.89162
1.8808
1.85948
1.82322
1.7672
1.68769
1.58554
1.46936
1.35249
1.24529
1.15206
1.07285
1.00596
0.949333
1.31489
1.91907
1.9211
1.91707
1.90283
1.87203
1.8165
1.72791
1.60401
1.45965
1.31982
1.19944
1.1007
1.02053
0.954992
0.900122
1.29278
1.93421
1.94204
1.94584
1.94121
1.91969
1.86803
1.77004
1.61456
1.42933
1.26372
1.134
1.03473
0.957692
0.896504
0.843997
1.26431
1.93744
1.9496
1.96029
1.96599
1.95714
1.91284
1.80474
1.6033
1.3636
1.17847
1.04932
0.956638
0.887204
0.833162
0.783932
1.23057
1.92584
1.93882
1.95178
1.9626
1.96297
1.92728
1.82919
1.57917
1.2633
1.07314
0.955112
0.874358
0.815197
0.769591
0.724593
1.19321
1.89813
1.90695
1.91433
1.91727
1.90589
1.85208
1.73113
1.46664
1.15197
0.974689
0.870046
0.800404
0.750154
0.711715
0.671506
1.15409
1.85558
1.85593
1.85099
1.83522
1.79574
1.70764
1.54708
1.31234
1.07497
0.91376
0.813378
0.747152
0.700333
0.665247
0.629415
1.11482
1.80176
1.79177
1.77274
1.73826
1.67747
1.5764
1.42666
1.2362
1.04405
0.893637
0.78998
0.719485
0.669968
0.633652
0.600558
1.07651
1.74119
1.72146
1.69067
1.64345
1.57277
1.47218
1.34006
1.18455
1.02707
0.89166
0.787878
0.712178
0.657278
0.616779
0.584044
1.03974
1.67795
1.65043
1.61155
1.55749
1.48427
1.38929
1.27351
1.14355
1.01197
0.892589
0.793596
0.715991
0.656675
0.611543
0.576787
1.00463
1.61496
1.58195
1.53828
1.48153
1.40962
1.32185
1.21998
1.109
0.996731
0.891681
0.799896
0.723667
0.662332
0.613746
0.575073
0.971134
1.55406
1.51757
1.4716
1.41469
1.34594
1.26549
1.17518
1.0787
0.981204
0.888228
0.804131
0.731287
0.670104
0.619747
0.575838
0.928118
1.48424
1.43858
1.3825
1.31526
1.23712
1.14971
1.05633
0.961612
0.870681
0.78795
0.716225
0.656428
0.607889
0.569038
0.529833
1.10522
1.60302
1.5629
1.51302
1.45259
1.3817
1.30175
1.2157
1.12777
1.0426
0.964192
0.895047
0.835945
0.786334
0.744935
0.701713
1.28764
1.78635
1.77243
1.75131
1.72119
1.68021
1.62702
1.5614
1.48502
1.40171
1.31657
1.23435
1.15825
1.08975
1.02907
0.973168
1.28202
1.8188
1.8084
1.79046
1.76237
1.72119
1.66423
1.59015
1.50067
1.40176
1.30184
1.20815
1.12452
1.05186
0.989432
0.935443
1.27042
1.84815
1.84243
1.82931
1.8053
1.76588
1.70614
1.62215
1.5146
1.3934
1.27398
1.16744
1.07728
1.0024
0.940304
0.888366
1.25235
1.87226
1.87218
1.86574
1.8486
1.81415
1.75406
1.65926
1.5251
1.36952
1.22474
1.10628
1.0132
0.939947
0.881344
0.831889
1.22783
1.88824
1.89407
1.89575
1.88879
1.86406
1.80753
1.70332
1.52625
1.31284
1.14066
1.01839
0.930459
0.864682
0.813574
0.767426
1.19758
1.8927
1.90313
1.91252
1.91806
1.91011
1.86019
1.7393
1.48218
1.18209
1.0083
0.903076
0.831955
0.78012
0.740188
0.698433
1.1631
1.88257
1.89397
1.90637
1.91992
1.93205
1.91109
1.65508
1.21805
0.955032
0.843573
0.775301
0.72878
0.694258
0.666982
0.630673
1.12632
1.85636
1.86343
1.86983
1.87448
1.87217
1.82379
1.50026
1.00123
0.775285
0.707399
0.667442
0.640004
0.619029
0.601809
0.571374
1.08922
1.81533
1.81344
1.80607
1.78749
1.74206
1.62795
1.4006
1.07161
0.788925
0.668218
0.614892
0.58571
0.566722
0.552643
0.527107
1.0533
1.76321
1.75049
1.72782
1.68773
1.61655
1.49548
1.31553
1.08409
0.858005
0.706343
0.620691
0.572361
0.543289
0.524289
0.501068
1.01935
1.70462
1.68196
1.64716
1.59399
1.5141
1.39982
1.24959
1.07272
0.896637
0.753607
0.653285
0.587337
0.54441
0.515869
0.491666
0.987471
1.64362
1.61328
1.57063
1.51136
1.43096
1.32651
1.19922
1.05675
0.914092
0.78802
0.687783
0.613349
0.559913
0.521941
0.493921
0.957414
1.58308
1.54751
1.50056
1.43955
1.3622
1.26776
1.15825
1.03929
0.91987
0.809704
0.715552
0.639639
0.580727
0.535968
0.502244
0.928821
1.52471
1.486
1.43726
1.37694
1.30405
1.2188
1.12319
1.02129
0.918857
0.822028
0.735559
0.661916
0.601393
0.552831
0.512381
0.88672
1.45456
1.40595
1.34625
1.27461
1.19124
1.09789
0.998183
0.897317
0.801036
0.714388
0.640603
0.580666
0.533697
0.49771
0.463031
1.04484
1.54898
1.50622
1.4534
1.38977
1.31551
1.23221
1.14312
1.05276
0.966104
0.887396
0.819216
0.762209
0.715591
0.677771
0.639074
1.22858
1.73157
1.71525
1.69159
1.65887
1.61543
1.56016
1.49312
1.41621
1.33337
1.24966
1.16966
1.09636
1.031
0.973591
0.921434
1.21991
1.76215
1.74859
1.72713
1.69525
1.65026
1.58985
1.51321
1.4225
1.32393
1.22586
1.13519
1.05536
0.986853
0.928649
0.878985
1.20526
1.78977
1.77998
1.76209
1.73262
1.68729
1.62178
1.53319
1.42319
1.30218
1.18545
1.08343
0.998737
0.929637
0.87316
0.826311
1.18431
1.81247
1.8073
1.79456
1.76965
1.72596
1.65595
1.55257
1.41355
1.25805
1.11795
1.007
0.922421
0.85751
0.806589
0.763226
1.15735
1.82755
1.82728
1.82098
1.80333
1.76429
1.68983
1.56811
1.38069
1.16762
1.0056
0.897519
0.823659
0.77035
0.729879
0.691058
1.1255
1.83187
1.83537
1.83524
1.82707
1.79822
1.71527
1.55162
1.26724
0.971807
0.827552
0.752019
0.704849
0.671694
0.646402
0.613438
1.09059
1.82254
1.82657
1.82853
1.82633
1.81241
1.74111
1.35619
0.788816
0.609488
0.59478
0.586202
0.578433
0.570639
0.562743
0.536825
1.05483
1.79816
1.7979
1.79389
1.7827
1.75382
1.65267
1.17808
0.419691
0.286697
0.395921
0.445071
0.469735
0.482477
0.488677
0.470027
1.02022
1.75991
1.75123
1.73437
1.70179
1.63412
1.48162
1.19202
0.793804
0.471948
0.390847
0.395335
0.41164
0.425485
0.435278
0.422096
0.988127
1.71129
1.69265
1.66199
1.61079
1.52369
1.38013
1.1723
0.91292
0.665999
0.512149
0.442175
0.416667
0.409909
0.410017
0.398269
0.95893
1.65664
1.62905
1.5879
1.52646
1.43584
1.30827
1.14322
0.951991
0.764457
0.615902
0.517533
0.459638
0.427993
0.411533
0.396548
0.932283
1.59976
1.56544
1.51787
1.45259
1.36495
1.25219
1.11612
0.965237
0.815568
0.684946
0.583433
0.511058
0.462408
0.430892
0.409369
0.907551
1.54328
1.50454
1.45384
1.38844
1.30608
1.20617
1.09101
0.966679
0.842629
0.729032
0.633045
0.557106
0.499867
0.458198
0.428624
0.884091
1.48877
1.44753
1.39592
1.33236
1.2559
1.16685
1.06739
0.961826
0.856158
0.756737
0.668538
0.594173
0.533972
0.486715
0.448661
0.843435
1.41995
1.36869
1.30596
1.23089
1.14365
1.04603
0.9418
0.836336
0.735705
0.645388
0.569052
0.507996
0.461478
0.427359
0.395543
0.983469
1.49144
1.44631
1.39109
1.32513
1.24873
1.16362
1.0731
0.981774
0.894687
0.81614
0.748791
0.693347
0.648974
0.61395
0.578245
1.16669
1.67037
1.65097
1.62413
1.58831
1.54217
1.48496
1.41717
1.34096
1.26016
1.17948
1.10305
1.03352
0.971922
0.918148
0.869495
1.15495
1.69784
1.68011
1.65409
1.61751
1.56807
1.50418
1.42588
1.33595
1.24039
1.14674
1.06102
0.986141
0.922391
0.868645
0.823142
1.13734
1.72234
1.70697
1.68265
1.64603
1.59336
1.52149
1.42935
1.32039
1.20461
1.09494
1.00003
0.921924
0.858852
0.807889
0.766059
1.11376
1.74211
1.72969
1.70798
1.67226
1.61638
1.53429
1.42276
1.28568
1.1412
1.01324
0.912466
0.836533
0.77926
0.735192
0.697915
1.08481
1.75484
1.74544
1.727
1.69326
1.63393
1.53647
1.39383
1.21151
1.02677
0.88475
0.789715
0.7267
0.683094
0.651246
0.619828
1.05188
1.75784
1.7505
1.73486
1.70364
1.64102
1.51808
1.31363
1.05076
0.820042
0.690466
0.627124
0.593558
0.573214
0.559132
0.535166
1.01708
1.74873
1.74096
1.72514
1.69377
1.6274
1.47511
1.17779
0.78414
0.496253
0.429851
0.434039
0.447211
0.458055
0.465362
0.450268
0.982782
1.72643
1.71464
1.69328
1.65374
1.57424
1.39821
1.05601
0.587407
0.175357
0.146016
0.247784
0.312907
0.353986
0.380717
0.37479
0.950997
1.69199
1.67318
1.64198
1.58846
1.49171
1.3131
1.02164
0.653935
0.325502
0.164435
0.183132
0.240784
0.286774
0.319959
0.32066
0.922808
1.64838
1.62159
1.5803
1.51549
1.41264
1.25453
1.03579
0.77754
0.534142
0.365353
0.285097
0.26768
0.278323
0.296293
0.297162
0.898276
1.59931
1.5655
1.51684
1.44666
1.34681
1.21074
1.03945
0.846213
0.658246
0.505586
0.401952
0.343206
0.316654
0.309104
0.303084
0.876695
1.54806
1.5091
1.45627
1.38528
1.29191
1.17404
1.03417
0.88119
0.730202
0.597556
0.49344
0.419497
0.371661
0.343546
0.327169
0.857092
1.49693
1.45476
1.40034
1.33109
1.24502
1.14183
1.02414
0.898079
0.772716
0.657732
0.560214
0.48303
0.425509
0.38488
0.357684
0.838594
1.44733
1.40355
1.34926
1.28303
1.20404
1.11276
1.01149
0.904557
0.797774
0.697285
0.608016
0.532723
0.472003
0.424893
0.387487
0.799919
1.3815
1.32814
1.26331
1.18618
1.09696
0.997431
0.891193
0.783463
0.680203
0.586911
0.507555
0.443984
0.396005
0.361811
0.330048
0.922953
1.43208
1.38512
1.32833
1.26123
1.18424
1.0991
1.00902
0.918413
0.832068
0.754177
0.687453
0.632793
0.589573
0.556143
0.521407
1.1039
1.60479
1.58207
1.55193
1.51307
1.46453
1.40604
1.33845
1.26409
1.18654
1.10994
1.03784
0.97251
0.914836
0.86467
0.818971
1.08939
1.62837
1.60611
1.57536
1.53415
1.48079
1.41448
1.33606
1.24876
1.15804
1.07023
0.99028
0.920622
0.861477
0.811853
0.769918
1.06929
1.64891
1.62748
1.59645
1.55286
1.49386
1.41761
1.3248
1.22004
1.11218
1.01123
0.923875
0.851954
0.794052
0.747639
0.710103
1.04375
1.6649
1.64454
1.61351
1.5675
1.50161
1.41205
1.29907
1.16981
1.03939
0.924215
0.832284
0.76265
0.710588
0.67124
0.639133
1.01357
1.67446
1.65507
1.62412
1.57553
1.50103
1.39286
1.25016
1.08527
0.925673
0.798194
0.709059
0.649867
0.610371
0.583079
0.557856
0.980359
1.67554
1.65635
1.6249
1.5733
1.48878
1.35626
1.17167
0.955887
0.758903
0.625002
0.551142
0.513901
0.495305
0.485578
0.469001
0.946354
1.66639
1.64575
1.61206
1.55609
1.46119
1.30455
1.07798
0.804171
0.555158
0.412382
0.364028
0.360735
0.37139
0.384036
0.377911
0.913956
1.64631
1.62206
1.58352
1.52073
1.41575
1.24371
0.99445
0.688748
0.394056
0.2054
0.163621
0.204489
0.251049
0.28803
0.293487
0.885053
1.61619
1.58665
1.54151
1.47109
1.35975
1.18849
0.950701
0.668481
0.393331
0.175625
0.0315783
0.0899504
0.162285
0.214556
0.229481
0.860523
1.57838
1.54316
1.49184
1.41639
1.30598
1.15047
0.949521
0.720648
0.498091
0.316833
0.196435
0.14744
0.15753
0.188404
0.202417
0.840169
1.53577
1.49572
1.44022
1.36354
1.25937
1.12355
0.958496
0.776269
0.59757
0.444043
0.32899
0.256052
0.221479
0.214697
0.2156
0.82304
1.49098
1.44754
1.39016
1.3151
1.2191
1.10097
0.963646
0.815354
0.668715
0.537001
0.429458
0.349643
0.296538
0.26612
0.251603
0.807972
1.44596
1.40058
1.3431
1.27126
1.18353
1.08003
0.96349
0.839614
0.716414
0.602306
0.503767
0.424096
0.363701
0.320995
0.293104
0.793901
1.40192
1.35583
1.29946
1.23152
1.15144
1.05988
0.959147
0.853294
0.74764
0.647754
0.558194
0.481794
0.419551
0.37103
0.331742
0.757661
1.34047
1.28574
1.21992
1.14232
1.05322
0.954304
0.848876
0.741665
0.638072
0.543216
0.461047
0.393866
0.342297
0.305387
0.269422
0.864886
1.37251
1.32441
1.26704
1.20007
1.12403
1.04062
0.952792
0.864519
0.780114
0.703484
0.637317
0.582775
0.539571
0.506404
0.470343
1.04195
1.53702
1.51118
1.47811
1.4368
1.38668
1.32787
1.26155
1.18998
1.1164
1.04433
0.97676
0.915604
0.861625
0.814737
0.771169
1.02521
1.55647
1.53
1.4951
1.45025
1.39438
1.32737
1.2506
1.16734
1.08234
1.0007
0.92641
0.861559
0.806426
0.760213
0.720772
1.00336
1.57283
1.54582
1.50906
1.46026
1.39748
1.32011
1.22987
1.13149
1.03222
0.939657
0.859015
0.79205
0.737954
0.6947
0.660098
0.97672
1.58487
1.55735
1.51866
1.46537
1.39422
1.30363
1.19565
1.0774
0.960309
0.855823
0.770363
0.704323
0.654668
0.617514
0.588781
0.946256
1.5912
1.56298
1.52215
1.46385
1.38285
1.27574
1.14477
1.00062
0.861416
0.744543
0.657233
0.596683
0.556077
0.528941
0.507442
0.91365
1.59035
1.56091
1.51751
1.45385
1.36219
1.23656
1.07879
0.903272
0.736952
0.606441
0.520125
0.469993
0.443565
0.43071
0.418115
0.881138
1.58118
1.54961
1.50293
1.43369
1.33213
1.18992
1.008
0.801897
0.605039
0.455409
0.367097
0.329047
0.320952
0.32641
0.324681
0.850968
1.56333
1.52862
1.47786
1.4032
1.29426
1.14201
0.946825
0.723586
0.504662
0.329109
0.220199
0.182936
0.194536
0.222101
0.233524
0.82484
1.53755
1.49904
1.44403
1.36518
1.25334
1.10108
0.909389
0.692411
0.4767
0.289788
0.144928
0.0527655
0.0747487
0.130017
0.156208
0.803492
1.50555
1.46331
1.40492
1.32435
1.21497
1.07232
0.898725
0.706285
0.515077
0.345038
0.207304
0.106349
0.0618414
0.0903797
0.11772
0.786572
1.46945
1.42424
1.36403
1.28444
1.18136
1.05299
0.902316
0.738652
0.576131
0.429121
0.307473
0.216158
0.158625
0.136754
0.138132
0.773048
1.43125
1.38417
1.3237
1.24702
1.15189
1.03803
0.90847
0.769991
0.632227
0.505094
0.396095
0.309274
0.24609
0.206211
0.187196
0.761644
1.39247
1.34458
1.28512
1.21235
1.12528
1.02439
0.912302
0.793948
0.675929
0.565054
0.466806
0.384534
0.319538
0.271651
0.238492
0.751249
1.35413
1.30632
1.24868
1.18023
1.10066
1.01077
0.912757
0.810215
0.707746
0.610109
0.521312
0.444075
0.379709
0.328409
0.284071
0.717831
1.29807
1.24278
1.17711
1.10055
1.01347
0.917438
0.815364
0.711306
0.609855
0.515458
0.431701
0.360991
0.304531
0.262419
0.216714
0.810393
1.31408
1.26563
1.20863
1.14294
1.06918
0.988915
0.904755
0.820121
0.738745
0.664085
0.598711
0.543978
0.500014
0.465996
0.426203
0.982285
1.46916
1.44071
1.40539
1.36251
1.31185
1.25379
1.18962
1.1215
1.05224
0.984757
0.921546
0.86424
0.813555
0.769471
0.726931
0.964004
1.48463
1.45471
1.41673
1.36967
1.31296
1.24694
1.17326
1.09491
1.01583
0.940137
0.871031
0.810322
0.758439
0.714834
0.676535
0.941205
1.49706
1.46561
1.42479
1.37299
1.30915
1.23347
1.14803
1.05702
0.966146
0.881178
0.80623
0.743112
0.691553
0.650151
0.616742
0.914339
1.50554
1.47247
1.42858
1.3715
1.2994
1.21211
1.11224
1.00566
0.900649
0.805351
0.725046
0.661083
0.611974
0.574993
0.547321
0.884469
1.50905
1.47421
1.42705
1.36428
1.28303
1.18248
1.06566
0.940526
0.81882
0.712076
0.626942
0.563948
0.519758
0.48972
0.468812
0.853256
1.50665
1.46975
1.41916
1.35066
1.26019
1.14603
1.01137
0.866018
0.725463
0.605512
0.514993
0.453863
0.41648
0.395728
0.382776
0.822757
1.49765
1.45835
1.40427
1.33045
1.23197
1.10627
0.956376
0.792861
0.633616
0.498187
0.398719
0.336726
0.305699
0.295583
0.291887
0.794999
1.48195
1.43996
1.3825
1.30443
1.20051
1.06793
0.909474
0.735459
0.563434
0.412992
0.298004
0.224898
0.193331
0.192822
0.199916
0.771469
1.46014
1.41543
1.35517
1.27457
1.1689
1.03584
0.878186
0.705458
0.532828
0.376205
0.246159
0.148078
0.0915764
0.0914156
0.112245
0.75276
1.43344
1.38639
1.32437
1.2434
1.13993
1.0126
0.864387
0.703574
0.542414
0.393191
0.263769
0.15636
0.0694254
0.00635741
0.0472115
0.738509
1.40334
1.35464
1.29214
1.2129
1.11462
0.996947
0.862889
0.719207
0.575343
0.440774
0.322374
0.22353
0.145906
0.0935968
0.0765859
0.727698
1.37128
1.32178
1.26
1.18395
1.09239
0.985693
0.866597
0.740375
0.614088
0.494891
0.388381
0.298025
0.225574
0.172348
0.139457
0.719073
1.3384
1.28891
1.22874
1.15669
1.07225
0.976123
0.870708
0.760052
0.649295
0.543758
0.44783
0.364452
0.295221
0.240814
0.197221
0.711523
1.30555
1.2567
1.19873
1.13096
1.05334
0.966718
0.873087
0.775533
0.677845
0.583934
0.497171
0.419979
0.353789
0.2992
0.246554
0.681119
1.25537
1.20031
1.13579
1.06151
0.977913
0.886432
0.789544
0.690613
0.59341
0.501598
0.418209
0.345409
0.284531
0.236274
0.175187
0.76022
1.25786
1.20975
1.15394
1.09044
1.0199
0.943743
0.864182
0.784083
0.706564
0.63459
0.570468
0.515667
0.47069
0.435143
0.389507
0.925925
1.40288
1.37249
1.33575
1.29226
1.242
1.18556
1.12423
1.05993
0.995033
0.931976
0.872807
0.818972
0.771136
0.729372
0.686705
0.906783
1.4148
1.38238
1.34256
1.29467
1.23853
1.17481
1.1051
1.032
0.95875
0.88857
0.824125
0.766994
0.717716
0.67603
0.637424
0.883756
1.42385
1.38931
1.34615
1.29336
1.23054
1.1583
1.0787
0.995202
0.912191
0.834061
0.764154
0.704195
0.654404
0.613954
0.579895
0.857415
1.42938
1.3926
1.34591
1.28783
1.21757
1.13567
1.04463
0.949018
0.854783
0.767805
0.692309
0.630121
0.580914
0.543057
0.514056
0.828848
1.43071
1.39158
1.34127
1.27772
1.19964
1.10736
1.00379
0.894708
0.787878
0.691064
0.60966
0.545615
0.497904
0.46389
0.440526
0.799561
1.42723
1.38573
1.33184
1.26302
1.17741
1.07505
0.959125
0.836339
0.716211
0.608542
0.520223
0.453683
0.407501
0.377993
0.360672
0.771399
1.41863
1.37472
1.31753
1.24413
1.15223
1.04163
0.915467
0.780923
0.64855
0.529576
0.432392
0.36072
0.3139
0.287998
0.276648
0.746108
1.40492
1.35871
1.29875
1.22197
1.12598
1.01041
0.878312
0.736741
0.59611
0.46759
0.359957
0.278325
0.224706
0.197944
0.191279
0.724947
1.38658
1.33837
1.27644
1.19794
1.10066
0.984366
0.852004
0.710105
0.567981
0.435373
0.319739
0.22542
0.155637
0.115553
0.107829
0.708412
1.36444
1.31474
1.2519
1.17349
1.07782
0.964978
0.837768
0.701985
0.565498
0.436289
0.320248
0.220204
0.136579
0.0695588
0.0324479
0.696144
1.33953
1.28902
1.22635
1.14968
1.05794
0.951575
0.833203
0.70773
0.581591
0.46124
0.351611
0.255395
0.173296
0.105126
0.0512373
0.687272
1.31286
1.26223
1.20069
1.12698
1.04058
0.942188
0.834174
0.720568
0.606438