/*--------------------------------*- C++ -*----------------------------------*\
| =========                 |                                                 |
| \\      /  F ield         | OpenFOAM: The Open Source CFD Toolbox           |
|  \\    /   O peration     | Version:  2112                                  |
|   \\  /    A nd           | Website:  www.openfoam.com                      |
|    \\/     M anipulation  |                                                 |
\*---------------------------------------------------------------------------*/
FoamFile
{
    version     2.0;
    format      ascii;
    arch        "LSB;label=32;scalar=64";
    class       volVectorField;
    location    "0";
    object      vf_grad;
}
// * * * * * * * * * * * * * * * * * * * * * * * * * * * * * * * * * * * * * //

dimensions      [0 -1 0 0 0 0 0];

internalField   nonuniform List<vector> 
4096
(
(-0.275264 -0.275264 -0.275264)
(-0.521288 -0.288024 -0.288024)
(-0.459072 -0.300504 -0.300504)
(-0.389328 -0.312232 -0.312232)
(-0.312232 -0.322688 -0.322688)
(-0.228504 -0.331248 -0.331248)
(-0.139432 -0.33736 -0.33736)
(-0.04688 -0.340544 -0.340544)
(0.04688 -0.340544 -0.340544)
(0.139432 -0.33736 -0.33736)
(0.228504 -0.331248 -0.331248)
(0.312232 -0.322688 -0.322688)
(0.389328 -0.312232 -0.312232)
(0.459072 -0.300504 -0.300504)
(0.521288 -0.288024 -0.288024)
(0.275264 -0.275264 -0.275264)
(-0.288024 -0.521288 -0.288024)
(-0.546528 -0.546528 -0.302736)
(-0.48328 -0.57136 -0.317328)
(-0.411512 -0.594864 -0.331248)
(-0.331248 -0.615928 -0.343808)
(-0.243176 -0.63328 -0.35424)
(-0.148728 -0.645712 -0.361728)
(-0.050064 -0.652208 -0.365656)
(0.050064 -0.652208 -0.365656)
(0.148728 -0.645712 -0.361728)
(0.243176 -0.63328 -0.35424)
(0.331248 -0.615928 -0.343808)
(0.411512 -0.594864 -0.331248)
(0.48328 -0.57136 -0.317328)
(0.546528 -0.546528 -0.302736)
(0.288024 -0.521288 -0.288024)
(-0.300504 -0.459072 -0.300504)
(-0.57136 -0.48328 -0.317328)
(-0.507408 -0.507408 -0.334264)
(-0.433896 -0.530544 -0.350648)
(-0.350648 -0.551528 -0.365656)
(-0.258288 -0.569024 -0.378288)
(-0.15836 -0.581656 -0.387456)
(-0.053376 -0.588296 -0.392304)
(0.053376 -0.588296 -0.392304)
(0.15836 -0.581656 -0.387456)
(0.258288 -0.569024 -0.378288)
(0.350648 -0.551528 -0.365656)
(0.433896 -0.530544 -0.350648)
(0.507408 -0.507408 -0.334264)
(0.57136 -0.48328 -0.317328)
(0.300504 -0.459072 -0.300504)
(-0.312232 -0.389328 -0.312232)
(-0.594864 -0.411512 -0.331248)
(-0.530544 -0.433896 -0.350648)
(-0.455632 -0.455632 -0.369728)
(-0.369728 -0.4756 -0.387456)
(-0.273304 -0.49244 -0.402568)
(-0.168 -0.504712 -0.413688)
(-0.056704 -0.5112 -0.419608)
(0.056704 -0.5112 -0.419608)
(0.168 -0.504712 -0.413688)
(0.273304 -0.49244 -0.402568)
(0.369728 -0.4756 -0.387456)
(0.455632 -0.455632 -0.369728)
(0.530544 -0.433896 -0.350648)
(0.594864 -0.411512 -0.331248)
(0.312232 -0.389328 -0.312232)
(-0.322688 -0.312232 -0.322688)
(-0.615928 -0.331248 -0.343808)
(-0.551528 -0.350648 -0.365656)
(-0.4756 -0.369728 -0.387456)
(-0.387456 -0.387456 -0.408016)
(-0.2874 -0.402568 -0.425792)
(-0.17712 -0.413688 -0.439016)
(-0.059864 -0.419608 -0.44612)
(0.059864 -0.419608 -0.44612)
(0.17712 -0.413688 -0.439016)
(0.2874 -0.402568 -0.425792)
(0.387456 -0.387456 -0.408016)
(0.4756 -0.369728 -0.387456)
(0.551528 -0.350648 -0.365656)
(0.615928 -0.331248 -0.343808)
(0.322688 -0.312232 -0.322688)
(-0.331248 -0.228504 -0.331248)
(-0.63328 -0.243176 -0.35424)
(-0.569024 -0.258288 -0.378288)
(-0.49244 -0.273304 -0.402568)
(-0.402568 -0.2874 -0.425792)
(-0.299536 -0.299536 -0.44612)
(-0.18504 -0.308536 -0.461416)
(-0.062624 -0.31336 -0.46968)
(0.062624 -0.31336 -0.46968)
(0.18504 -0.308536 -0.461416)
(0.299536 -0.299536 -0.44612)
(0.402568 -0.2874 -0.425792)
(0.49244 -0.273304 -0.402568)
(0.569024 -0.258288 -0.378288)
(0.63328 -0.243176 -0.35424)
(0.331248 -0.228504 -0.331248)
(-0.33736 -0.139432 -0.33736)
(-0.645712 -0.148728 -0.361728)
(-0.581656 -0.15836 -0.387456)
(-0.504712 -0.168 -0.413688)
(-0.413688 -0.17712 -0.439016)
(-0.308536 -0.18504 -0.461416)
(-0.190944 -0.190944 -0.478416)
(-0.064688 -0.194112 -0.487648)
(0.064688 -0.194112 -0.487648)
(0.190944 -0.190944 -0.478416)
(0.308536 -0.18504 -0.461416)
(0.413688 -0.17712 -0.439016)
(0.504712 -0.168 -0.413688)
(0.581656 -0.15836 -0.387456)
(0.645712 -0.148728 -0.361728)
(0.33736 -0.139432 -0.33736)
(-0.340544 -0.04688 -0.340544)
(-0.652208 -0.050064 -0.365656)
(-0.588296 -0.053376 -0.392304)
(-0.5112 -0.056704 -0.419608)
(-0.419608 -0.059864 -0.44612)
(-0.31336 -0.062624 -0.46968)
(-0.194112 -0.064688 -0.487648)
(-0.065792 -0.065792 -0.497456)
(0.065792 -0.065792 -0.497456)
(0.194112 -0.064688 -0.487648)
(0.31336 -0.062624 -0.46968)
(0.419608 -0.059864 -0.44612)
(0.5112 -0.056704 -0.419608)
(0.588296 -0.053376 -0.392304)
(0.652208 -0.050064 -0.365656)
(0.340544 -0.04688 -0.340544)
(-0.340544 0.04688 -0.340544)
(-0.652208 0.050064 -0.365656)
(-0.588296 0.053376 -0.392304)
(-0.5112 0.056704 -0.419608)
(-0.419608 0.059864 -0.44612)
(-0.31336 0.062624 -0.46968)
(-0.194112 0.064688 -0.487648)
(-0.065792 0.065792 -0.497456)
(0.065792 0.065792 -0.497456)
(0.194112 0.064688 -0.487648)
(0.31336 0.062624 -0.46968)
(0.419608 0.059864 -0.44612)
(0.5112 0.056704 -0.419608)
(0.588296 0.053376 -0.392304)
(0.652208 0.050064 -0.365656)
(0.340544 0.04688 -0.340544)
(-0.33736 0.139432 -0.33736)
(-0.645712 0.148728 -0.361728)
(-0.581656 0.15836 -0.387456)
(-0.504712 0.168 -0.413688)
(-0.413688 0.17712 -0.439016)
(-0.308536 0.18504 -0.461416)
(-0.190944 0.190944 -0.478416)
(-0.064688 0.194112 -0.487648)
(0.064688 0.194112 -0.487648)
(0.190944 0.190944 -0.478416)
(0.308536 0.18504 -0.461416)
(0.413688 0.17712 -0.439016)
(0.504712 0.168 -0.413688)
(0.581656 0.15836 -0.387456)
(0.645712 0.148728 -0.361728)
(0.33736 0.139432 -0.33736)
(-0.331248 0.228504 -0.331248)
(-0.63328 0.243176 -0.35424)
(-0.569024 0.258288 -0.378288)
(-0.49244 0.273304 -0.402568)
(-0.402568 0.2874 -0.425792)
(-0.299536 0.299536 -0.44612)
(-0.18504 0.308536 -0.461416)
(-0.062624 0.31336 -0.46968)
(0.062624 0.31336 -0.46968)
(0.18504 0.308536 -0.461416)
(0.299536 0.299536 -0.44612)
(0.402568 0.2874 -0.425792)
(0.49244 0.273304 -0.402568)
(0.569024 0.258288 -0.378288)
(0.63328 0.243176 -0.35424)
(0.331248 0.228504 -0.331248)
(-0.322688 0.312232 -0.322688)
(-0.615928 0.331248 -0.343808)
(-0.551528 0.350648 -0.365656)
(-0.4756 0.369728 -0.387456)
(-0.387456 0.387456 -0.408016)
(-0.2874 0.402568 -0.425792)
(-0.17712 0.413688 -0.439016)
(-0.059864 0.419608 -0.44612)
(0.059864 0.419608 -0.44612)
(0.17712 0.413688 -0.439016)
(0.2874 0.402568 -0.425792)
(0.387456 0.387456 -0.408016)
(0.4756 0.369728 -0.387456)
(0.551528 0.350648 -0.365656)
(0.615928 0.331248 -0.343808)
(0.322688 0.312232 -0.322688)
(-0.312232 0.389328 -0.312232)
(-0.594864 0.411512 -0.331248)
(-0.530544 0.433896 -0.350648)
(-0.455632 0.455632 -0.369728)
(-0.369728 0.4756 -0.387456)
(-0.273304 0.49244 -0.402568)
(-0.168 0.504712 -0.413688)
(-0.056704 0.5112 -0.419608)
(0.056704 0.5112 -0.419608)
(0.168 0.504712 -0.413688)
(0.273304 0.49244 -0.402568)
(0.369728 0.4756 -0.387456)
(0.455632 0.455632 -0.369728)
(0.530544 0.433896 -0.350648)
(0.594864 0.411512 -0.331248)
(0.312232 0.389328 -0.312232)
(-0.300504 0.459072 -0.300504)
(-0.57136 0.48328 -0.317328)
(-0.507408 0.507408 -0.334264)
(-0.433896 0.530544 -0.350648)
(-0.350648 0.551528 -0.365656)
(-0.258288 0.569024 -0.378288)
(-0.15836 0.581656 -0.387456)
(-0.053376 0.588296 -0.392304)
(0.053376 0.588296 -0.392304)
(0.15836 0.581656 -0.387456)
(0.258288 0.569024 -0.378288)
(0.350648 0.551528 -0.365656)
(0.433896 0.530544 -0.350648)
(0.507408 0.507408 -0.334264)
(0.57136 0.48328 -0.317328)
(0.300504 0.459072 -0.300504)
(-0.288024 0.521288 -0.288024)
(-0.546528 0.546528 -0.302736)
(-0.48328 0.57136 -0.317328)
(-0.411512 0.594864 -0.331248)
(-0.331248 0.615928 -0.343808)
(-0.243176 0.63328 -0.35424)
(-0.148728 0.645712 -0.361728)
(-0.050064 0.652208 -0.365656)
(0.050064 0.652208 -0.365656)
(0.148728 0.645712 -0.361728)
(0.243176 0.63328 -0.35424)
(0.331248 0.615928 -0.343808)
(0.411512 0.594864 -0.331248)
(0.48328 0.57136 -0.317328)
(0.546528 0.546528 -0.302736)
(0.288024 0.521288 -0.288024)
(-0.275264 0.275264 -0.275264)
(-0.521288 0.288024 -0.288024)
(-0.459072 0.300504 -0.300504)
(-0.389328 0.312232 -0.312232)
(-0.312232 0.322688 -0.322688)
(-0.228504 0.331248 -0.331248)
(-0.139432 0.33736 -0.33736)
(-0.04688 0.340544 -0.340544)
(0.04688 0.340544 -0.340544)
(0.139432 0.33736 -0.33736)
(0.228504 0.331248 -0.331248)
(0.312232 0.322688 -0.322688)
(0.389328 0.312232 -0.312232)
(0.459072 0.300504 -0.300504)
(0.521288 0.288024 -0.288024)
(0.275264 0.275264 -0.275264)
(-0.288024 -0.288024 -0.521288)
(-0.546528 -0.302736 -0.546528)
(-0.48328 -0.317328 -0.57136)
(-0.411512 -0.331248 -0.594864)
(-0.331248 -0.343808 -0.615928)
(-0.243176 -0.35424 -0.63328)
(-0.148728 -0.361728 -0.645712)
(-0.050064 -0.365656 -0.652208)
(0.050064 -0.365656 -0.652208)
(0.148728 -0.361728 -0.645712)
(0.243176 -0.35424 -0.63328)
(0.331248 -0.343808 -0.615928)
(0.411512 -0.331248 -0.594864)
(0.48328 -0.317328 -0.57136)
(0.546528 -0.302736 -0.546528)
(0.288024 -0.288024 -0.521288)
(-0.302736 -0.546528 -0.546528)
(-0.575832 -0.575832 -0.575832)
(-0.511792 -0.60512 -0.60512)
(-0.437992 -0.63328 -0.63328)
(-0.35424 -0.658896 -0.658896)
(-0.261096 -0.68032 -0.68032)
(-0.160144 -0.695808 -0.695808)
(-0.053992 -0.703968 -0.703968)
(0.053992 -0.703968 -0.703968)
(0.160144 -0.695808 -0.695808)
(0.261096 -0.68032 -0.68032)
(0.35424 -0.658896 -0.658896)
(0.437992 -0.63328 -0.63328)
(0.511792 -0.60512 -0.60512)
(0.575832 -0.575832 -0.575832)
(0.302736 -0.546528 -0.546528)
(-0.317328 -0.48328 -0.57136)
(-0.60512 -0.511792 -0.60512)
(-0.540728 -0.540728 -0.639408)
(-0.465288 -0.569024 -0.672944)
(-0.378288 -0.595176 -0.703968)
(-0.280088 -0.617352 -0.730312)
(-0.172376 -0.633616 -0.749616)
(-0.058224 -0.642248 -0.759872)
(0.058224 -0.642248 -0.759872)
(0.172376 -0.633616 -0.749616)
(0.280088 -0.617352 -0.730312)
(0.378288 -0.595176 -0.703968)
(0.465288 -0.569024 -0.672944)
(0.540728 -0.540728 -0.639408)
(0.60512 -0.511792 -0.60512)
(0.317328 -0.48328 -0.57136)
(-0.331248 -0.411512 -0.594864)
(-0.63328 -0.437992 -0.63328)
(-0.569024 -0.465288 -0.672944)
(-0.49244 -0.49244 -0.712432)
(-0.402568 -0.51796 -0.749616)
(-0.299536 -0.539944 -0.78172)
(-0.18504 -0.556272 -0.8056)
(-0.062624 -0.565016 -0.8184)
(0.062624 -0.565016 -0.8184)
(0.18504 -0.556272 -0.8056)
(0.299536 -0.539944 -0.78172)
(0.402568 -0.51796 -0.749616)
(0.49244 -0.49244 -0.712432)
(0.569024 -0.465288 -0.672944)
(0.63328 -0.437992 -0.63328)
(0.331248 -0.411512 -0.594864)
(-0.343808 -0.331248 -0.615928)
(-0.658896 -0.35424 -0.658896)
(-0.595176 -0.378288 -0.703968)
(-0.51796 -0.402568 -0.749616)
(-0.425792 -0.425792 -0.793384)
(-0.3184 -0.44612 -0.83184)
(-0.197448 -0.461416 -0.860872)
(-0.066968 -0.46968 -0.876608)
(0.066968 -0.46968 -0.876608)
(0.197448 -0.461416 -0.860872)
(0.3184 -0.44612 -0.83184)
(0.425792 -0.425792 -0.793384)
(0.51796 -0.402568 -0.749616)
(0.595176 -0.378288 -0.703968)
(0.658896 -0.35424 -0.658896)
(0.343808 -0.331248 -0.615928)
(-0.35424 -0.243176 -0.63328)
(-0.68032 -0.261096 -0.68032)
(-0.617352 -0.280088 -0.730312)
(-0.539944 -0.299536 -0.78172)
(-0.44612 -0.3184 -0.83184)
(-0.33516 -0.33516 -0.876608)
(-0.2086 -0.347936 -0.910896)
(-0.070888 -0.354888 -0.929656)
(0.070888 -0.354888 -0.929656)
(0.2086 -0.347936 -0.910896)
(0.33516 -0.33516 -0.876608)
(0.44612 -0.3184 -0.83184)
(0.539944 -0.299536 -0.78172)
(0.617352 -0.280088 -0.730312)
(0.68032 -0.261096 -0.68032)
(0.35424 -0.243176 -0.63328)
(-0.361728 -0.148728 -0.645712)
(-0.695808 -0.160144 -0.695808)
(-0.633616 -0.172376 -0.749616)
(-0.556272 -0.18504 -0.8056)
(-0.461416 -0.197448 -0.860872)
(-0.347936 -0.2086 -0.910896)
(-0.217176 -0.217176 -0.949656)
(-0.07392 -0.221888 -0.97104)
(0.07392 -0.221888 -0.97104)
(0.217176 -0.217176 -0.949656)
(0.347936 -0.2086 -0.910896)
(0.461416 -0.197448 -0.860872)
(0.556272 -0.18504 -0.8056)
(0.633616 -0.172376 -0.749616)
(0.695808 -0.160144 -0.695808)
(0.361728 -0.148728 -0.645712)
(-0.365656 -0.050064 -0.652208)
(-0.703968 -0.053992 -0.703968)
(-0.642248 -0.058224 -0.759872)
(-0.565016 -0.062624 -0.8184)
(-0.46968 -0.066968 -0.876608)
(-0.354888 -0.070888 -0.929656)
(-0.221888 -0.07392 -0.97104)
(-0.0756 -0.0756 -0.993998)
(0.0756 -0.0756 -0.993998)
(0.221888 -0.07392 -0.97104)
(0.354888 -0.070888 -0.929656)
(0.46968 -0.066968 -0.876608)
(0.565016 -0.062624 -0.8184)
(0.642248 -0.058224 -0.759872)
(0.703968 -0.053992 -0.703968)
(0.365656 -0.050064 -0.652208)
(-0.365656 0.050064 -0.652208)
(-0.703968 0.053992 -0.703968)
(-0.642248 0.058224 -0.759872)
(-0.565016 0.062624 -0.8184)
(-0.46968 0.066968 -0.876608)
(-0.354888 0.070888 -0.929656)
(-0.221888 0.07392 -0.97104)
(-0.0756 0.0756 -0.993998)
(0.0756 0.0756 -0.993998)
(0.221888 0.07392 -0.97104)
(0.354888 0.070888 -0.929656)
(0.46968 0.066968 -0.876608)
(0.565016 0.062624 -0.8184)
(0.642248 0.058224 -0.759872)
(0.703968 0.053992 -0.703968)
(0.365656 0.050064 -0.652208)
(-0.361728 0.148728 -0.645712)
(-0.695808 0.160144 -0.695808)
(-0.633616 0.172376 -0.749616)
(-0.556272 0.18504 -0.8056)
(-0.461416 0.197448 -0.860872)
(-0.347936 0.2086 -0.910896)
(-0.217176 0.217176 -0.949656)
(-0.07392 0.221888 -0.97104)
(0.07392 0.221888 -0.97104)
(0.217176 0.217176 -0.949656)
(0.347936 0.2086 -0.910896)
(0.461416 0.197448 -0.860872)
(0.556272 0.18504 -0.8056)
(0.633616 0.172376 -0.749616)
(0.695808 0.160144 -0.695808)
(0.361728 0.148728 -0.645712)
(-0.35424 0.243176 -0.63328)
(-0.68032 0.261096 -0.68032)
(-0.617352 0.280088 -0.730312)
(-0.539944 0.299536 -0.78172)
(-0.44612 0.3184 -0.83184)
(-0.33516 0.33516 -0.876608)
(-0.2086 0.347936 -0.910896)
(-0.070888 0.354888 -0.929656)
(0.070888 0.354888 -0.929656)
(0.2086 0.347936 -0.910896)
(0.33516 0.33516 -0.876608)
(0.44612 0.3184 -0.83184)
(0.539944 0.299536 -0.78172)
(0.617352 0.280088 -0.730312)
(0.68032 0.261096 -0.68032)
(0.35424 0.243176 -0.63328)
(-0.343808 0.331248 -0.615928)
(-0.658896 0.35424 -0.658896)
(-0.595176 0.378288 -0.703968)
(-0.51796 0.402568 -0.749616)
(-0.425792 0.425792 -0.793384)
(-0.3184 0.44612 -0.83184)
(-0.197448 0.461416 -0.860872)
(-0.066968 0.46968 -0.876608)
(0.066968 0.46968 -0.876608)
(0.197448 0.461416 -0.860872)
(0.3184 0.44612 -0.83184)
(0.425792 0.425792 -0.793384)
(0.51796 0.402568 -0.749616)
(0.595176 0.378288 -0.703968)
(0.658896 0.35424 -0.658896)
(0.343808 0.331248 -0.615928)
(-0.331248 0.411512 -0.594864)
(-0.63328 0.437992 -0.63328)
(-0.569024 0.465288 -0.672944)
(-0.49244 0.49244 -0.712432)
(-0.402568 0.51796 -0.749616)
(-0.299536 0.539944 -0.78172)
(-0.18504 0.556272 -0.8056)
(-0.062624 0.565016 -0.8184)
(0.062624 0.565016 -0.8184)
(0.18504 0.556272 -0.8056)
(0.299536 0.539944 -0.78172)
(0.402568 0.51796 -0.749616)
(0.49244 0.49244 -0.712432)
(0.569024 0.465288 -0.672944)
(0.63328 0.437992 -0.63328)
(0.331248 0.411512 -0.594864)
(-0.317328 0.48328 -0.57136)
(-0.60512 0.511792 -0.60512)
(-0.540728 0.540728 -0.639408)
(-0.465288 0.569024 -0.672944)
(-0.378288 0.595176 -0.703968)
(-0.280088 0.617352 -0.730312)
(-0.172376 0.633616 -0.749616)
(-0.058224 0.642248 -0.759872)
(0.058224 0.642248 -0.759872)
(0.172376 0.633616 -0.749616)
(0.280088 0.617352 -0.730312)
(0.378288 0.595176 -0.703968)
(0.465288 0.569024 -0.672944)
(0.540728 0.540728 -0.639408)
(0.60512 0.511792 -0.60512)
(0.317328 0.48328 -0.57136)
(-0.302736 0.546528 -0.546528)
(-0.575832 0.575832 -0.575832)
(-0.511792 0.60512 -0.60512)
(-0.437992 0.63328 -0.63328)
(-0.35424 0.658896 -0.658896)
(-0.261096 0.68032 -0.68032)
(-0.160144 0.695808 -0.695808)
(-0.053992 0.703968 -0.703968)
(0.053992 0.703968 -0.703968)
(0.160144 0.695808 -0.695808)
(0.261096 0.68032 -0.68032)
(0.35424 0.658896 -0.658896)
(0.437992 0.63328 -0.63328)
(0.511792 0.60512 -0.60512)
(0.575832 0.575832 -0.575832)
(0.302736 0.546528 -0.546528)
(-0.288024 0.288024 -0.521288)
(-0.546528 0.302736 -0.546528)
(-0.48328 0.317328 -0.57136)
(-0.411512 0.331248 -0.594864)
(-0.331248 0.343808 -0.615928)
(-0.243176 0.35424 -0.63328)
(-0.148728 0.361728 -0.645712)
(-0.050064 0.365656 -0.652208)
(0.050064 0.365656 -0.652208)
(0.148728 0.361728 -0.645712)
(0.243176 0.35424 -0.63328)
(0.331248 0.343808 -0.615928)
(0.411512 0.331248 -0.594864)
(0.48328 0.317328 -0.57136)
(0.546528 0.302736 -0.546528)
(0.288024 0.288024 -0.521288)
(-0.300504 -0.300504 -0.459072)
(-0.57136 -0.317328 -0.48328)
(-0.507408 -0.334264 -0.507408)
(-0.433896 -0.350648 -0.530544)
(-0.350648 -0.365656 -0.551528)
(-0.258288 -0.378288 -0.569024)
(-0.15836 -0.387456 -0.581656)
(-0.053376 -0.392304 -0.588296)
(0.053376 -0.392304 -0.588296)
(0.15836 -0.387456 -0.581656)
(0.258288 -0.378288 -0.569024)
(0.350648 -0.365656 -0.551528)
(0.433896 -0.350648 -0.530544)
(0.507408 -0.334264 -0.507408)
(0.57136 -0.317328 -0.48328)
(0.300504 -0.300504 -0.459072)
(-0.317328 -0.57136 -0.48328)
(-0.60512 -0.60512 -0.511792)
(-0.540728 -0.639408 -0.540728)
(-0.465288 -0.672944 -0.569024)
(-0.378288 -0.703968 -0.595176)
(-0.280088 -0.730312 -0.617352)
(-0.172376 -0.749616 -0.633616)
(-0.058224 -0.759872 -0.642248)
(0.058224 -0.759872 -0.642248)
(0.172376 -0.749616 -0.633616)
(0.280088 -0.730312 -0.617352)
(0.378288 -0.703968 -0.595176)
(0.465288 -0.672944 -0.569024)
(0.540728 -0.639408 -0.540728)
(0.60512 -0.60512 -0.511792)
(0.317328 -0.57136 -0.48328)
(-0.334264 -0.507408 -0.507408)
(-0.639408 -0.540728 -0.540728)
(-0.575232 -0.575232 -0.575232)
(-0.498456 -0.609696 -0.609696)
(-0.408016 -0.642248 -0.642248)
(-0.303936 -0.670424 -0.670424)
(-0.18792 -0.691448 -0.691448)
(-0.063632 -0.702728 -0.702728)
(0.063632 -0.702728 -0.702728)
(0.18792 -0.691448 -0.691448)
(0.303936 -0.670424 -0.670424)
(0.408016 -0.642248 -0.642248)
(0.498456 -0.609696 -0.609696)
(0.575232 -0.575232 -0.575232)
(0.639408 -0.540728 -0.540728)
(0.334264 -0.507408 -0.507408)
(-0.350648 -0.433896 -0.530544)
(-0.672944 -0.465288 -0.569024)
(-0.609696 -0.498456 -0.609696)
(-0.532304 -0.532304 -0.65124)
(-0.439016 -0.565016 -0.691448)
(-0.329288 -0.593968 -0.727088)
(-0.20468 -0.615968 -0.754192)
(-0.069504 -0.627936 -0.76896)
(0.069504 -0.627936 -0.76896)
(0.20468 -0.615968 -0.754192)
(0.329288 -0.593968 -0.727088)
(0.439016 -0.565016 -0.691448)
(0.532304 -0.532304 -0.65124)
(0.609696 -0.498456 -0.609696)
(0.672944 -0.465288 -0.569024)
(0.350648 -0.433896 -0.530544)
(-0.365656 -0.350648 -0.551528)
(-0.703968 -0.378288 -0.595176)
(-0.642248 -0.408016 -0.642248)
(-0.565016 -0.439016 -0.691448)
(-0.46968 -0.46968 -0.740256)
(-0.354888 -0.497456 -0.78464)
(-0.221888 -0.518984 -0.819176)
(-0.0756 -0.530864 -0.83828)
(0.0756 -0.530864 -0.83828)
(0.221888 -0.518984 -0.819176)
(0.354888 -0.497456 -0.78464)
(0.46968 -0.46968 -0.740256)
(0.565016 -0.439016 -0.691448)
(0.642248 -0.408016 -0.642248)
(0.703968 -0.378288 -0.595176)
(0.365656 -0.350648 -0.551528)
(-0.378288 -0.258288 -0.569024)
(-0.730312 -0.280088 -0.617352)
(-0.670424 -0.303936 -0.670424)
(-0.593968 -0.329288 -0.727088)
(-0.497456 -0.354888 -0.78464)
(-0.378592 -0.378592 -0.83828)
(-0.238088 -0.39732 -0.881001)
(-0.081384 -0.407792 -0.905044)
(0.081384 -0.407792 -0.905044)
(0.238088 -0.39732 -0.881001)
(0.378592 -0.378592 -0.83828)
(0.497456 -0.354888 -0.78464)
(0.593968 -0.329288 -0.727088)
(0.670424 -0.303936 -0.670424)
(0.730312 -0.280088 -0.617352)
(0.378288 -0.258288 -0.569024)
(-0.387456 -0.15836 -0.581656)
(-0.749616 -0.172376 -0.633616)
(-0.691448 -0.18792 -0.691448)
(-0.615968 -0.20468 -0.754192)
(-0.518984 -0.221888 -0.819176)
(-0.39732 -0.238088 -0.881001)
(-0.251088 -0.251088 -0.931227)
(-0.086072 -0.258454 -0.959928)
(0.086072 -0.258454 -0.959928)
(0.251088 -0.251088 -0.931227)
(0.39732 -0.238088 -0.881001)
(0.518984 -0.221888 -0.819176)
(0.615968 -0.20468 -0.754192)
(0.691448 -0.18792 -0.691448)
(0.749616 -0.172376 -0.633616)
(0.387456 -0.15836 -0.581656)
(-0.392304 -0.053376 -0.588296)
(-0.759872 -0.058224 -0.642248)
(-0.702728 -0.063632 -0.702728)
(-0.627936 -0.069504 -0.76896)
(-0.530864 -0.0756 -0.83828)
(-0.407792 -0.081384 -0.905044)
(-0.258454 -0.086072 -0.959928)
(-0.0887496 -0.0887496 -0.991568)
(0.0887496 -0.0887496 -0.991568)
(0.258454 -0.086072 -0.959928)
(0.407792 -0.081384 -0.905044)
(0.530864 -0.0756 -0.83828)
(0.627936 -0.069504 -0.76896)
(0.702728 -0.063632 -0.702728)
(0.759872 -0.058224 -0.642248)
(0.392304 -0.053376 -0.588296)
(-0.392304 0.053376 -0.588296)
(-0.759872 0.058224 -0.642248)
(-0.702728 0.063632 -0.702728)
(-0.627936 0.069504 -0.76896)
(-0.530864 0.0756 -0.83828)
(-0.407792 0.081384 -0.905044)
(-0.258454 0.086072 -0.959928)
(-0.0887496 0.0887496 -0.991568)
(0.0887496 0.0887496 -0.991568)
(0.258454 0.086072 -0.959928)
(0.407792 0.081384 -0.905044)
(0.530864 0.0756 -0.83828)
(0.627936 0.069504 -0.76896)
(0.702728 0.063632 -0.702728)
(0.759872 0.058224 -0.642248)
(0.392304 0.053376 -0.588296)
(-0.387456 0.15836 -0.581656)
(-0.749616 0.172376 -0.633616)
(-0.691448 0.18792 -0.691448)
(-0.615968 0.20468 -0.754192)
(-0.518984 0.221888 -0.819176)
(-0.39732 0.238088 -0.881001)
(-0.251088 0.251088 -0.931227)
(-0.086072 0.258454 -0.959928)
(0.086072 0.258454 -0.959928)
(0.251088 0.251088 -0.931227)
(0.39732 0.238088 -0.881001)
(0.518984 0.221888 -0.819176)
(0.615968 0.20468 -0.754192)
(0.691448 0.18792 -0.691448)
(0.749616 0.172376 -0.633616)
(0.387456 0.15836 -0.581656)
(-0.378288 0.258288 -0.569024)
(-0.730312 0.280088 -0.617352)
(-0.670424 0.303936 -0.670424)
(-0.593968 0.329288 -0.727088)
(-0.497456 0.354888 -0.78464)
(-0.378592 0.378592 -0.83828)
(-0.238088 0.39732 -0.881001)
(-0.081384 0.407792 -0.905044)
(0.081384 0.407792 -0.905044)
(0.238088 0.39732 -0.881001)
(0.378592 0.378592 -0.83828)
(0.497456 0.354888 -0.78464)
(0.593968 0.329288 -0.727088)
(0.670424 0.303936 -0.670424)
(0.730312 0.280088 -0.617352)
(0.378288 0.258288 -0.569024)
(-0.365656 0.350648 -0.551528)
(-0.703968 0.378288 -0.595176)
(-0.642248 0.408016 -0.642248)
(-0.565016 0.439016 -0.691448)
(-0.46968 0.46968 -0.740256)
(-0.354888 0.497456 -0.78464)
(-0.221888 0.518984 -0.819176)
(-0.0756 0.530864 -0.83828)
(0.0756 0.530864 -0.83828)
(0.221888 0.518984 -0.819176)
(0.354888 0.497456 -0.78464)
(0.46968 0.46968 -0.740256)
(0.565016 0.439016 -0.691448)
(0.642248 0.408016 -0.642248)
(0.703968 0.378288 -0.595176)
(0.365656 0.350648 -0.551528)
(-0.350648 0.433896 -0.530544)
(-0.672944 0.465288 -0.569024)
(-0.609696 0.498456 -0.609696)
(-0.532304 0.532304 -0.65124)
(-0.439016 0.565016 -0.691448)
(-0.329288 0.593968 -0.727088)
(-0.20468 0.615968 -0.754192)
(-0.069504 0.627936 -0.76896)
(0.069504 0.627936 -0.76896)
(0.20468 0.615968 -0.754192)
(0.329288 0.593968 -0.727088)
(0.439016 0.565016 -0.691448)
(0.532304 0.532304 -0.65124)
(0.609696 0.498456 -0.609696)
(0.672944 0.465288 -0.569024)
(0.350648 0.433896 -0.530544)
(-0.334264 0.507408 -0.507408)
(-0.639408 0.540728 -0.540728)
(-0.575232 0.575232 -0.575232)
(-0.498456 0.609696 -0.609696)
(-0.408016 0.642248 -0.642248)
(-0.303936 0.670424 -0.670424)
(-0.18792 0.691448 -0.691448)
(-0.063632 0.702728 -0.702728)
(0.063632 0.702728 -0.702728)
(0.18792 0.691448 -0.691448)
(0.303936 0.670424 -0.670424)
(0.408016 0.642248 -0.642248)
(0.498456 0.609696 -0.609696)
(0.575232 0.575232 -0.575232)
(0.639408 0.540728 -0.540728)
(0.334264 0.507408 -0.507408)
(-0.317328 0.57136 -0.48328)
(-0.60512 0.60512 -0.511792)
(-0.540728 0.639408 -0.540728)
(-0.465288 0.672944 -0.569024)
(-0.378288 0.703968 -0.595176)
(-0.280088 0.730312 -0.617352)
(-0.172376 0.749616 -0.633616)
(-0.058224 0.759872 -0.642248)
(0.058224 0.759872 -0.642248)
(0.172376 0.749616 -0.633616)
(0.280088 0.730312 -0.617352)
(0.378288 0.703968 -0.595176)
(0.465288 0.672944 -0.569024)
(0.540728 0.639408 -0.540728)
(0.60512 0.60512 -0.511792)
(0.317328 0.57136 -0.48328)
(-0.300504 0.300504 -0.459072)
(-0.57136 0.317328 -0.48328)
(-0.507408 0.334264 -0.507408)
(-0.433896 0.350648 -0.530544)
(-0.350648 0.365656 -0.551528)
(-0.258288 0.378288 -0.569024)
(-0.15836 0.387456 -0.581656)
(-0.053376 0.392304 -0.588296)
(0.053376 0.392304 -0.588296)
(0.15836 0.387456 -0.581656)
(0.258288 0.378288 -0.569024)
(0.350648 0.365656 -0.551528)
(0.433896 0.350648 -0.530544)
(0.507408 0.334264 -0.507408)
(0.57136 0.317328 -0.48328)
(0.300504 0.300504 -0.459072)
(-0.312232 -0.312232 -0.389328)
(-0.594864 -0.331248 -0.411512)
(-0.530544 -0.350648 -0.433896)
(-0.455632 -0.369728 -0.455632)
(-0.369728 -0.387456 -0.4756)
(-0.273304 -0.402568 -0.49244)
(-0.168 -0.413688 -0.504712)
(-0.056704 -0.419608 -0.5112)
(0.056704 -0.419608 -0.5112)
(0.168 -0.413688 -0.504712)
(0.273304 -0.402568 -0.49244)
(0.369728 -0.387456 -0.4756)
(0.455632 -0.369728 -0.455632)
(0.530544 -0.350648 -0.433896)
(0.594864 -0.331248 -0.411512)
(0.312232 -0.312232 -0.389328)
(-0.331248 -0.594864 -0.411512)
(-0.63328 -0.63328 -0.437992)
(-0.569024 -0.672944 -0.465288)
(-0.49244 -0.712432 -0.49244)
(-0.402568 -0.749616 -0.51796)
(-0.299536 -0.78172 -0.539944)
(-0.18504 -0.8056 -0.556272)
(-0.062624 -0.8184 -0.565016)
(0.062624 -0.8184 -0.565016)
(0.18504 -0.8056 -0.556272)
(0.299536 -0.78172 -0.539944)
(0.402568 -0.749616 -0.51796)
(0.49244 -0.712432 -0.49244)
(0.569024 -0.672944 -0.465288)
(0.63328 -0.63328 -0.437992)
(0.331248 -0.594864 -0.411512)
(-0.350648 -0.530544 -0.433896)
(-0.672944 -0.569024 -0.465288)
(-0.609696 -0.609696 -0.498456)
(-0.532304 -0.65124 -0.532304)
(-0.439016 -0.691448 -0.565016)
(-0.329288 -0.727088 -0.593968)
(-0.20468 -0.754192 -0.615968)
(-0.069504 -0.76896 -0.627936)
(0.069504 -0.76896 -0.627936)
(0.20468 -0.754192 -0.615968)
(0.329288 -0.727088 -0.593968)
(0.439016 -0.691448 -0.565016)
(0.532304 -0.65124 -0.532304)
(0.609696 -0.609696 -0.498456)
(0.672944 -0.569024 -0.465288)
(0.350648 -0.530544 -0.433896)
(-0.369728 -0.455632 -0.455632)
(-0.712432 -0.49244 -0.49244)
(-0.65124 -0.532304 -0.532304)
(-0.574192 -0.574192 -0.574192)
(-0.478416 -0.615968 -0.615968)
(-0.36228 -0.65416 -0.65416)
(-0.226912 -0.684 -0.684)
(-0.077392 -0.700568 -0.700568)
(0.077392 -0.700568 -0.700568)
(0.226912 -0.684 -0.684)
(0.36228 -0.65416 -0.65416)
(0.478416 -0.615968 -0.615968)
(0.574192 -0.574192 -0.574192)
(0.65124 -0.532304 -0.532304)
(0.712432 -0.49244 -0.49244)
(0.369728 -0.455632 -0.455632)
(-0.387456 -0.369728 -0.4756)
(-0.749616 -0.402568 -0.51796)
(-0.691448 -0.439016 -0.565016)
(-0.615968 -0.478416 -0.615968)
(-0.518984 -0.518984 -0.668576)
(-0.39732 -0.557312 -0.71843)
(-0.251088 -0.588225 -0.758756)
(-0.086072 -0.605764 -0.781707)
(0.086072 -0.605764 -0.781707)
(0.251088 -0.588225 -0.758756)
(0.39732 -0.557312 -0.71843)
(0.518984 -0.518984 -0.668576)
(0.615968 -0.478416 -0.615968)
(0.691448 -0.439016 -0.565016)
(0.749616 -0.402568 -0.51796)
(0.387456 -0.369728 -0.4756)
(-0.402568 -0.273304 -0.49244)
(-0.78172 -0.299536 -0.539944)
(-0.727088 -0.329288 -0.593968)
(-0.65416 -0.36228 -0.65416)
(-0.557312 -0.39732 -0.71843)
(-0.431521 -0.431521 -0.781707)
(-0.275364 -0.459987 -0.834864)
(-0.0949312 -0.476536 -0.866025)
(0.0949312 -0.476536 -0.866025)
(0.275364 -0.459987 -0.834864)
(0.431521 -0.431521 -0.781707)
(0.557312 -0.39732 -0.71843)
(0.65416 -0.36228 -0.65416)
(0.727088 -0.329288 -0.593968)
(0.78172 -0.299536 -0.539944)
(0.402568 -0.273304 -0.49244)
(-0.413688 -0.168 -0.504712)
(-0.8056 -0.18504 -0.556272)
(-0.754192 -0.20468 -0.615968)
(-0.684 -0.226912 -0.684)
(-0.588225 -0.251088 -0.758756)
(-0.459987 -0.275364 -0.834864)
(-0.296103 -0.296103 -0.901118)
(-0.102621 -0.308412 -0.941098)
(0.102621 -0.308412 -0.941098)
(0.296103 -0.296103 -0.901118)
(0.459987 -0.275364 -0.834864)
(0.588225 -0.251088 -0.758756)
(0.684 -0.226912 -0.684)
(0.754192 -0.20468 -0.615968)
(0.8056 -0.18504 -0.556272)
(0.413688 -0.168 -0.504712)
(-0.419608 -0.056704 -0.5112)
(-0.8184 -0.062624 -0.565016)
(-0.76896 -0.069504 -0.627936)
(-0.700568 -0.077392 -0.700568)
(-0.605764 -0.086072 -0.781707)
(-0.476536 -0.0949312 -0.866025)
(-0.308412 -0.102621 -0.941098)
(-0.10724 -0.10724 -0.987278)
(0.10724 -0.10724 -0.987278)
(0.308412 -0.102621 -0.941098)
(0.476536 -0.0949312 -0.866025)
(0.605764 -0.086072 -0.781707)
(0.700568 -0.077392 -0.700568)
(0.76896 -0.069504 -0.627936)
(0.8184 -0.062624 -0.565016)
(0.419608 -0.056704 -0.5112)
(-0.419608 0.056704 -0.5112)
(-0.8184 0.062624 -0.565016)
(-0.76896 0.069504 -0.627936)
(-0.700568 0.077392 -0.700568)
(-0.605764 0.086072 -0.781707)
(-0.476536 0.0949312 -0.866025)
(-0.308412 0.102621 -0.941098)
(-0.10724 0.10724 -0.987278)
(0.10724 0.10724 -0.987278)
(0.308412 0.102621 -0.941098)
(0.476536 0.0949312 -0.866025)
(0.605764 0.086072 -0.781707)
(0.700568 0.077392 -0.700568)
(0.76896 0.069504 -0.627936)
(0.8184 0.062624 -0.565016)
(0.419608 0.056704 -0.5112)
(-0.413688 0.168 -0.504712)
(-0.8056 0.18504 -0.556272)
(-0.754192 0.20468 -0.615968)
(-0.684 0.226912 -0.684)
(-0.588225 0.251088 -0.758756)
(-0.459987 0.275364 -0.834864)
(-0.296103 0.296103 -0.901118)
(-0.102621 0.308412 -0.941098)
(0.102621 0.308412 -0.941098)
(0.296103 0.296103 -0.901118)
(0.459987 0.275364 -0.834864)
(0.588225 0.251088 -0.758756)
(0.684 0.226912 -0.684)
(0.754192 0.20468 -0.615968)
(0.8056 0.18504 -0.556272)
(0.413688 0.168 -0.504712)
(-0.402568 0.273304 -0.49244)
(-0.78172 0.299536 -0.539944)
(-0.727088 0.329288 -0.593968)
(-0.65416 0.36228 -0.65416)
(-0.557312 0.39732 -0.71843)
(-0.431521 0.431521 -0.781707)
(-0.275364 0.459987 -0.834864)
(-0.0949312 0.476536 -0.866025)
(0.0949312 0.476536 -0.866025)
(0.275364 0.459987 -0.834864)
(0.431521 0.431521 -0.781707)
(0.557312 0.39732 -0.71843)
(0.65416 0.36228 -0.65416)
(0.727088 0.329288 -0.593968)
(0.78172 0.299536 -0.539944)
(0.402568 0.273304 -0.49244)
(-0.387456 0.369728 -0.4756)
(-0.749616 0.402568 -0.51796)
(-0.691448 0.439016 -0.565016)
(-0.615968 0.478416 -0.615968)
(-0.518984 0.518984 -0.668576)
(-0.39732 0.557312 -0.71843)
(-0.251088 0.588225 -0.758756)
(-0.086072 0.605764 -0.781707)
(0.086072 0.605764 -0.781707)
(0.251088 0.588225 -0.758756)
(0.39732 0.557312 -0.71843)
(0.518984 0.518984 -0.668576)
(0.615968 0.478416 -0.615968)
(0.691448 0.439016 -0.565016)
(0.749616 0.402568 -0.51796)
(0.387456 0.369728 -0.4756)
(-0.369728 0.455632 -0.455632)