/*--------------------------------*- C++ -*----------------------------------*\
| =========                 |                                                 |
| \\      /  F ield         | OpenFOAM: The Open Source CFD Toolbox           |
|  \\    /   O peration     | Version:  2112                                  |
|   \\  /    A nd           | Website:  www.openfoam.com                      |
|    \\/     M anipulation  |                                                 |
\*---------------------------------------------------------------------------*/
FoamFile
{
    version     2.0;
    format      ascii;
    arch        "LSB;label=32;scalar=64";
    class       volVectorField;
    location    "0";
    object      vf_nn_grad;
}
// * * * * * * * * * * * * * * * * * * * * * * * * * * * * * * * * * * * * * //

dimensions      [0 -1 0 0 0 0 0];

internalField   nonuniform List<vector> 
4096
(
(0.406877 0.0920303 0.287138)
(0.819591 0.0928831 0.278406)
(0.830744 0.0936456 0.269953)
(0.840882 0.0943221 0.261806)
(0.850056 0.0949179 0.253988)
(0.85832 0.0954388 0.246518)
(0.86573 0.095892 0.23941)
(0.872341 0.0962848 0.232675)
(0.878206 0.0966253 0.226317)
(0.883378 0.0969217 0.220337)
(0.887907 0.0971825 0.214732)
(0.891839 0.0974163 0.209494)
(0.89522 0.0976315 0.204615)
(0.898089 0.0978364 0.200082)
(0.900485 0.0980389 0.195879)
(0.450785 0.0982465 0.191991)
(0.40773 0.203236 0.277405)
(0.821206 0.204374 0.269015)
(0.832183 0.205327 0.260898)
(0.842154 0.206108 0.253081)
(0.851173 0.206729 0.245585)
(0.859295 0.207205 0.23843)
(0.866576 0.207551 0.231627)
(0.873074 0.207786 0.225187)
(0.878842 0.207927 0.219114)
(0.883935 0.207992 0.213407)
(0.888401 0.207999 0.208064)
(0.892288 0.207968 0.203078)
(0.89564 0.207916 0.198438)
(0.898496 0.20786 0.194133)
(0.900895 0.207817 0.190146)
(0.450992 0.207802 0.186463)
(0.408015 0.241343 0.267541)
(0.821682 0.241349 0.25951)
(0.832478 0.241165 0.251746)
(0.842284 0.240806 0.244275)
(0.851153 0.240293 0.237118)
(0.859143 0.239643 0.230292)
(0.866312 0.238878 0.223808)
(0.872716 0.238019 0.217676)
(0.878411 0.237088 0.211899)
(0.88345 0.236107 0.206476)
(0.887883 0.235097 0.201405)
(0.891756 0.234078 0.196678)
(0.895112 0.233071 0.192284)
(0.89799 0.232095 0.188212)
(0.900427 0.231166 0.184447)
(0.45077 0.230301 0.180973)
(0.407736 0.278866 0.257591)
(0.821028 0.277752 0.249935)
(0.83164 0.276443 0.24254)
(0.841282 0.274961 0.23543)
(0.850009 0.27333 0.228625)
(0.85788 0.271574 0.222141)
(0.864953 0.269718 0.215988)
(0.871284 0.267788 0.210175)
(0.87693 0.265809 0.204704)
(0.881943 0.263805 0.199574)
(0.886372 0.261801 0.194782)
(0.890263 0.25982 0.19032)
(0.893656 0.257883 0.186179)
(0.896591 0.25601 0.182345)
(0.899102 0.25422 0.178804)
(0.450128 0.252529 0.175542)
(0.406901 0.315612 0.247601)
(0.819259 0.313398 0.240334)
(0.829688 0.310987 0.233322)
(0.839171 0.308406 0.226586)
(0.847765 0.305684 0.220145)
(0.855531 0.30285 0.214014)
(0.862526 0.299934 0.208202)
(0.868807 0.296964 0.202717)
(0.874429 0.293969 0.19756)
(0.879443 0.290976 0.19273)
(0.883898 0.288012 0.188223)
(0.887838 0.285102 0.184032)
(0.891302 0.282268 0.180146)
(0.894327 0.279531 0.176553)
(0.896946 0.276911 0.173239)
(0.449079 0.274424 0.17019)
(0.405521 0.351395 0.23762)
(0.816402 0.348109 0.230755)
(0.826648 0.344628 0.224136)
(0.835979 0.340982 0.217785)
(0.844453 0.337206 0.211719)
(0.85213 0.333332 0.205949)
(0.859066 0.329395 0.200487)
(0.865319 0.325426 0.195336)
(0.870943 0.321456 0.190499)
(0.875987 0.317517 0.185974)
(0.880498 0.313635 0.181757)
(0.884518 0.309837 0.177839)
(0.888086 0.306146 0.17421)
(0.891234 0.302586 0.17086)
(0.893994 0.299174 0.167774)
(0.44764 0.295927 0.164937)
(0.403615 0.386036 0.227697)
(0.812492 0.381717 0.221244)
(0.82256 0.377206 0.215028)
(0.831749 0.372539 0.209071)
(0.840116 0.367755 0.203386)
(0.84772 0.36289 0.197986)
(0.854619 0.35798 0.192878)
(0.860868 0.353062 0.188067)
(0.866519 0.348169 0.183554)
(0.871621 0.343333 0.179337)
(0.876218 0.338583 0.175411)
(0.880349 0.333947 0.171767)
(0.884051 0.329448 0.168397)
(0.887355 0.32511 0.165289)
(0.890287 0.320951 0.162429)
(0.445832 0.316987 0.159804)
(0.401203 0.419368 0.217883)
(0.807572 0.414063 0.211849)
(0.817471 0.408574 0.206044)
(0.826529 0.40294 0.200486)
(0.834804 0.397202 0.195189)
(0.842355 0.391403 0.190162)
(0.849239 0.38558 0.185412)
(0.855508 0.379772 0.180944)
(0.861213 0.374014 0.176756)
(0.866401 0.36834 0.172848)
(0.871112 0.36278 0.169212)
(0.875384 0.357362 0.165842)
(0.879249 0.352111 0.162729)
(0.882737 0.347048 0.159861)
(0.885871 0.342193 0.157226)
(0.443676 0.337559 0.154809)
(0.398311 0.451241 0.208228)
(0.801697 0.445008 0.202618)
(0.811436 0.4386 0.197229)
(0.820378 0.432061 0.192074)
(0.828579 0.425436 0.187167)
(0.836098 0.418768 0.182515)
(0.842988 0.412099 0.178125)
(0.849302 0.405468 0.173999)
(0.855088 0.398912 0.170137)
(0.860387 0.392467 0.166535)
(0.86524 0.386161 0.163188)
(0.86968 0.380025 0.16009)
(0.873737 0.374081 0.15723)
(0.877436 0.368352 0.154599)
(0.880798 0.362856 0.152183)
(0.441199 0.357605 0.149971)
(0.39497 0.481525 0.198783)
(0.794931 0.474429 0.193601)
(0.804523 0.467171 0.188629)
(0.813364 0.459798 0.183878)
(0.821511 0.452358 0.179361)
(0.829018 0.444896 0.175084)
(0.835939 0.437456 0.171051)
(0.842322 0.430077 0.167265)
(0.848212 0.422798 0.163725)
(0.85365 0.415653 0.160426)
(0.85867 0.408673 0.157365)
(0.863304 0.401887 0.154533)
(0.867577 0.395317 0.151922)
(0.871512 0.388984 0.149521)
(0.875124 0.382906 0.147321)
(0.438426 0.377094 0.145307)
(0.391215 0.510107 0.189598)
(0.787344 0.502224 0.184844)
(0.796806 0.494194 0.180287)
(0.805565 0.486068 0.175939)
(0.813677 0.477894 0.171809)
(0.821195 0.46972 0.167903)
(0.828169 0.461589 0.164224)
(0.834645 0.453543 0.160773)
(0.840664 0.44562 0.157549)
(0.846263 0.437855 0.154548)
(0.851474 0.430276 0.151765)
(0.856324 0.422913 0.149193)
(0.860835 0.415786 0.146824)
(0.865026 0.408917 0.144649)
(0.868908 0.40232 0.142655)
(0.435387 0.396005 0.140833)
(0.387086 0.536904 0.180723)
(0.779017 0.528316 0.176393)
(0.788367 0.5196 0.172248)
(0.797064 0.510806 0.168297)
(0.805163 0.501987 0.164549)
(0.812713 0.493188 0.161007)
(0.819763 0.484455 0.157675)
(0.826353 0.475829 0.154552)
(0.832523 0.467347 0.151636)
(0.838305 0.459042 0.148925)
(0.843728 0.450945 0.146413)
(0.848814 0.44308 0.144093)
(0.853581 0.435471 0.141957)
(0.858045 0.428133 0.139997)
(0.862212 0.421081 0.138203)
(0.432111 0.414322 0.136564)
(0.382627 0.561857 0.172202)
(0.770039 0.552654 0.16829)
(0.779296 0.543343 0.16455)
(0.787952 0.533976 0.160989)
(0.796059 0.524604 0.157614)
(0.803663 0.515274 0.154428)
(0.81081 0.506031 0.151433)
(0.817536 0.496914 0.148628)
(0.823877 0.48796 0.146011)
(0.829861 0.479202 0.14358)
(0.835512 0.470667 0.141328)
(0.840849 0.46238 0.13925)
(0.845888 0.454361 0.137338)
(0.850636 0.446625 0.135584)
(0.855098 0.439183 0.133979)
(0.428628 0.432042 0.132514)
(0.377884 0.584933 0.16408)
(0.760503 0.575212 0.160576)
(0.769688 0.565403 0.15723)
(0.778325 0.555561 0.154049)
(0.786461 0.545734 0.151036)
(0.79414 0.535969 0.148194)
(0.801403 0.52631 0.145524)
(0.808283 0.516796 0.143025)
(0.814811 0.507461 0.140696)
(0.821012 0.498335 0.138532)
(0.826906 0.489446 0.136529)
(0.832507 0.480815 0.134681)
(0.837826 0.472461 0.132981)
(0.842867 0.464396 0.131423)
(0.847628 0.456629 0.129997)
(0.424969 0.449164 0.128694)
(0.372906 0.606131 0.156395)
(0.75051 0.595993 0.153287)
(0.759644 0.585788 0.150323)
(0.768282 0.575571 0.147507)
(0.776467 0.565389 0.144842)
(0.78424 0.555288 0.142331)
(0.791636 0.54531 0.139972)
(0.798686 0.535491 0.137766)
(0.805416 0.525864 0.135709)
(0.811846 0.516458 0.133799)
(0.817992 0.507297 0.132031)
(0.823864 0.498401 0.130401)
(0.829468 0.489784 0.128901)
(0.834804 0.481459 0.127525)
(0.839865 0.47343 0.126266)
(0.421163 0.465698 0.125114)
(0.367745 0.308131 0.149182)
(0.74016 0.30297 0.146455)
(0.749266 0.297782 0.143857)
(0.757926 0.292592 0.14139)
(0.766179 0.287425 0.139057)
(0.774061 0.282303 0.13686)
(0.781606 0.277246 0.134796)
(0.788837 0.272273 0.132866)
(0.795779 0.267398 0.131067)
(0.802445 0.262635 0.129396)
(0.808848 0.257997 0.127849)
(0.814994 0.253492 0.126422)
(0.820884 0.249127 0.125108)
(0.826512 0.244907 0.123902)
(0.831867 0.240835 0.122797)
(0.417237 0.236909 0.121784)
(0.398146 0.0822975 0.589469)
(0.802406 0.0834916 0.571835)
(0.814143 0.0845904 0.554746)
(0.824916 0.0855969 0.538258)
(0.834768 0.0865152 0.522416)
(0.843743 0.0873505 0.50726)
(0.851887 0.0881088 0.492817)
(0.859247 0.0887968 0.479108)
(0.865867 0.0894219 0.466142)
(0.871792 0.089992 0.453922)
(0.877064 0.0905153 0.442443)
(0.881723 0.0909999 0.431691)
(0.885807 0.0914544 0.421648)
(0.889353 0.0918869 0.412289)
(0.892394 0.0923057 0.403587)
(0.446896 0.0927183 0.395509)
(0.39934 0.183639 0.57063)
(0.804699 0.185477 0.553648)
(0.816249 0.187121 0.5372)
(0.826841 0.188578 0.52134)
(0.836522 0.18986 0.506112)
(0.845337 0.190979 0.491553)
(0.853334 0.191949 0.477691)
(0.86056 0.192787 0.464542)
(0.867063 0.193508 0.452117)
(0.872886 0.194131 0.440418)
(0.878072 0.194673 0.429437)
(0.882662 0.195152 0.419162)
(0.886694 0.195585 0.409574)
(0.890204 0.19599 0.400648)
(0.893226 0.196385 0.392358)
(0.447309 0.196784 0.384671)
(0.399984 0.221529 0.551475)
(0.805888 0.222269 0.535181)
(0.817244 0.222807 0.51941)
(0.827655 0.223156 0.504213)
(0.837169 0.223333 0.489633)
(0.845833 0.223354 0.475704)
(0.853696 0.223239 0.46245)
(0.860806 0.223007 0.44989)
(0.867212 0.222678 0.438031)
(0.872957 0.222274 0.426875)
(0.878084 0.221815 0.416413)
(0.882635 0.221321 0.406633)
(0.886646 0.220812 0.397516)
(0.890153 0.220307 0.389037)
(0.893188 0.219824 0.38117)
(0.447296 0.21938 0.373883)
(0.40008 0.258927 0.53209)
(0.805977 0.258576 0.516519)
(0.817136 0.258018 0.501458)
(0.827367 0.257272 0.486956)
(0.83672 0.256357 0.473053)
(0.845243 0.255296 0.459781)
(0.852987 0.254112 0.447163)
(0.86 0.252829 0.435216)
(0.86633 0.25147 0.423945)
(0.872022 0.250059 0.413351)
(0.877118 0.248619 0.403425)
(0.881659 0.247174 0.394155)
(0.88568 0.245744 0.385522)
(0.889217 0.244351 0.377501)
(0.892299 0.243012 0.370067)
(0.446865 0.241746 0.363187)
(0.399634 0.295642 0.512566)
(0.80498 0.294218 0.497748)
(0.815939 0.292583 0.483427)
(0.825994 0.290761 0.469648)
(0.835193 0.288778 0.456448)
(0.843588 0.286659 0.443858)
(0.851228 0.284433 0.431899)
(0.858164 0.282125 0.420584)
(0.864442 0.279764 0.409919)
(0.870107 0.277376 0.399904)
(0.8752 0.274987 0.390529)
(0.87976 0.27262 0.381781)
(0.883823 0.270299 0.373641)
(0.887421 0.268046 0.366087)
(0.890583 0.26588 0.359091)
(0.44603 0.263819 0.352623)
(0.398656 0.331491 0.492998)
(0.802918 0.329018 0.47896)
(0.813679 0.326334 0.465403)
(0.823562 0.323467 0.452371)
(0.832618 0.320447 0.439898)
(0.840898 0.317305 0.42801)
(0.848453 0.314071 0.416727)
(0.855332 0.310776 0.406062)
(0.861581 0.307451 0.396018)
(0.867244 0.304124 0.386593)
(0.872362 0.300822 0.377779)
(0.876972 0.297572 0.369562)
(0.881107 0.294398 0.361922)
(0.884798 0.291322 0.354839)
(0.888072 0.288364 0.348284)
(0.444804 0.285541 0.342231)
(0.397161 0.366298 0.473482)
(0.799823 0.36281 0.460246)
(0.810388 0.359113 0.447477)
(0.820107 0.35524 0.435211)
(0.829031 0.351225 0.423481)
(0.837212 0.347102 0.412312)
(0.8447 0.342906 0.401721)
(0.851544 0.33867 0.391717)
(0.857789 0.334426 0.382304)
(0.863477 0.330206 0.373479)
(0.868648 0.326038 0.365232)
(0.873336 0.32195 0.35755)
(0.877573 0.317967 0.350414)
(0.881387 0.314112 0.343802)
(0.884803 0.310403 0.33769)
(0.443207 0.306859 0.33205)
(0.395168 0.399898 0.454118)
(0.795733 0.395438 0.441704)
(0.806108 0.390774 0.429737)
(0.815673 0.385943 0.418253)
(0.82448 0.380983 0.40728)
(0.832579 0.375932 0.396841)
(0.840021 0.370827 0.386951)
(0.846852 0.365704 0.377616)
(0.853117 0.360597 0.36884)
(0.858856 0.355538 0.360618)
(0.864107 0.350558 0.352941)
(0.868901 0.345685 0.345795)
(0.873268 0.340944 0.339163)
(0.877234 0.336358 0.333022)
(0.88082 0.331947 0.327349)
(0.44126 0.327726 0.322118)
(0.392701 0.432142 0.435008)
(0.790699 0.426761 0.423428)
(0.800893 0.421185 0.412275)
(0.810316 0.415453 0.401583)
(0.81902 0.409608 0.391376)
(0.827056 0.40369 0.381674)
(0.834472 0.397737 0.372488)
(0.841314 0.391789 0.363826)
(0.847623 0.385881 0.355688)
(0.853439 0.380045 0.34807)
(0.858795 0.374314 0.340961)
(0.863722 0.368715 0.334349)
(0.868246 0.363274 0.328215)
(0.87239 0.358013 0.32254)
(0.876171 0.352951 0.317301)
(0.438987 0.348103 0.312472)
(0.389788 0.462895 0.416253)
(0.784776 0.456655 0.405514)
(0.7948 0.450229 0.395183)
(0.804097 0.443663 0.385287)
(0.812716 0.437001 0.375849)
(0.820708 0.430284 0.366884)
(0.82812 0.423554 0.358403)
(0.834995 0.416851 0.350412)
(0.841373 0.41021 0.342909)
(0.84729 0.403666 0.335889)
(0.852776 0.39725 0.329343)
(0.857861 0.39099 0.323257)
(0.862566 0.384911 0.317616)
(0.86691 0.379034 0.312398)
(0.87091 0.373378 0.307584)
(0.436412 0.367956 0.303148)
(0.386461 0.492047 0.397954)
(0.778033 0.485016 0.38806)
(0.787901 0.477813 0.37855)
(0.797087 0.470487 0.369449)
(0.805641 0.463082 0.360776)
(0.813609 0.455643 0.352544)
(0.821039 0.448212 0.344763)
(0.827969 0.44083 0.337435)
(0.834439 0.433532 0.330559)
(0.840479 0.426354 0.32413)
(0.846119 0.419324 0.318136)
(0.851383 0.412473 0.312567)
(0.85629 0.405822 0.307406)
(0.860857 0.399393 0.302635)
(0.865092 0.393202 0.298233)
(0.433564 0.387262 0.294178)
(0.382756 0.519508 0.380209)
(0.770542 0.511762 0.371155)
(0.780271 0.503862 0.362461)
(0.789365 0.495856 0.354148)
(0.797873 0.487791 0.346233)
(0.805839 0.479713 0.338725)
(0.813307 0.471664 0.331633)
(0.820315 0.463684 0.324957)
(0.826897 0.455809 0.318695)
(0.833082 0.448074 0.312842)
(0.838896 0.440507 0.307388)
(0.844358 0.433137 0.302321)
(0.849486 0.425984 0.297626)
(0.854291 0.419069 0.293287)
(0.858778 0.412405 0.289283)
(0.430472 0.406003 0.285594)
(0.378715 0.545214 0.363112)
(0.762386 0.536838 0.354889)
(0.771995 0.528326 0.347)
(0.781016 0.519727 0.339463)
(0.789498 0.51109 0.33229)
(0.797482 0.502461 0.325492)
(0.805009 0.49388 0.319071)
(0.812115 0.485388 0.313031)
(0.818829 0.47702 0.307366)
(0.825177 0.468809 0.302072)
(0.831182 0.460783 0.29714)
(0.836859 0.452968 0.292558)
(0.842222 0.445385 0.288312)
(0.847277 0.43805 0.284386)
(0.852027 0.430977 0.280763)
(0.427163 0.424171 0.277422)
(0.37438 0.569126 0.346753)
(0.753654 0.560209 0.339344)
(0.763161 0.551177 0.332242)
(0.77213 0.542079 0.325462)
(0.780606 0.532962 0.319013)
(0.788628 0.523872 0.312903)
(0.796234 0.51485 0.307134)
(0.803455 0.505934 0.301708)
(0.810318 0.497159 0.296619)
(0.816845 0.488555 0.291863)
(0.823055 0.48015 0.287431)
(0.82896 0.471967 0.283312)
(0.834568 0.464024 0.279494)
(0.839882 0.456337 0.275963)
(0.844899 0.448916 0.272701)
(0.423666 0.441765 0.269689)
(0.369799 0.591233 0.331212)
(0.744438 0.581871 0.324595)
(0.753864 0.572414 0.318258)
(0.762801 0.562912 0.31221)
(0.771291 0.553411 0.30646)
(0.77937 0.543954 0.301013)
(0.787071 0.534582 0.295871)
(0.794423 0.525332 0.291032)
(0.80145 0.516236 0.286494)
(0.808168 0.507323 0.282251)
(0.814593 0.498617 0.278295)
(0.820734 0.490141 0.274616)
(0.826593 0.481911 0.271203)
(0.832169 0.473938 0.268043)
(0.837454 0.46623 0.265119)
(0.420011 0.458788 0.262416)
(0.365018 0.300918 0.316561)
(0.734835 0.296138 0.31071)
(0.744202 0.291315 0.305107)
(0.753126 0.286475 0.299763)
(0.761648 0.28164 0.294682)
(0.7698 0.276832 0.289868)
(0.777612 0.272071 0.285322)
(0.785108 0.267373 0.281043)
(0.792309 0.262756 0.277027)
(0.799227 0.258232 0.273268)
(0.805874 0.253814 0.269761)
(0.812253 0.249512 0.266496)
(0.818365 0.245334 0.263462)
(0.824201 0.241284 0.260648)
(0.829749 0.237366 0.25804)
(0.416225 0.233579 0.25562)
(0.389243 0.0731913 0.618807)
(0.784868 0.0746957 0.60089)
(0.797167 0.0760992 0.583495)
(0.808552 0.0774042 0.566676)
(0.819058 0.0786137 0.550481)
(0.828721 0.0797324 0.534946)
(0.837578 0.0807655 0.5201)
(0.845665 0.0817193 0.505963)
(0.85302 0.0826007 0.492547)
(0.859678 0.0834171 0.479853)
(0.865675 0.0841766 0.467879)
(0.871044 0.0848873 0.456613)
(0.875818 0.0855575 0.446038)
(0.880028 0.0861956 0.436132)
(0.883705 0.0868098 0.42687)
(0.442707 0.0874081 0.418222)
(0.390747 0.165242 0.60123)
(0.787776 0.16772 0.583901)
(0.799875 0.169992 0.567083)
(0.811067 0.172064 0.550829)
(0.821387 0.173946 0.535185)
(0.830873 0.175649 0.520185)
(0.839565 0.177185 0.505859)
(0.847501 0.178569 0.492224)
(0.854718 0.179816 0.479292)
(0.861254 0.180944 0.467064)
(0.867145 0.181969 0.455536)
(0.872425 0.18291 0.444698)
(0.877126 0.183784 0.434531)
(0.881281 0.184608 0.425015)
(0.884918 0.1854 0.416123)
(0.443305 0.186176 0.407827)
(0.391721 0.202803 0.583233)
(0.789618 0.20422 0.566533)
(0.801511 0.205423 0.550332)
(0.812506 0.206423 0.534682)
(0.822643 0.207233 0.519625)
(0.83196 0.20787 0.505197)
(0.840498 0.208351 0.491423)
(0.848297 0.208693 0.478321)
(0.855396 0.208916 0.465902)
(0.861832 0.20904 0.454166)
(0.867641 0.209085 0.443109)
(0.872858 0.209072 0.43272)
(0.877516 0.20902 0.422981)
(0.881645 0.208948 0.413871)
(0.885273 0.208875 0.405365)
(0.443483 0.208818 0.397433)
(0.392165 0.239958 0.564898)
(0.790396 0.240319 0.548864)
(0.802078 0.24046 0.533317)
(0.812877 0.240395 0.518306)
(0.822834 0.240145 0.503871)
(0.83199 0.239728 0.490046)
(0.840387 0.239166 0.476855)
(0.848066 0.238482 0.464314)
(0.855065 0.237697 0.452434)
(0.861424 0.236834 0.441214)
(0.867177 0.235917 0.430649)
(0.872359 0.234968 0.420728)
(0.877002 0.234009 0.411433)
(0.881136 0.23306 0.402744)
(0.884788 0.232141 0.394636)
(0.443248 0.231269 0.387081)
(0.392082 0.27652 0.546309)
(0.79012 0.275839 0.530977)
(0.801587 0.274932 0.516117)
(0.812192 0.273821 0.501777)
(0.821976 0.272529 0.487994)
(0.830981 0.271079 0.474801)
(0.839251 0.269498 0.46222)
(0.846827 0.26781 0.450266)
(0.853748 0.266042 0.438947)
(0.860052 0.264219 0.428263)
(0.865775 0.262366 0.418208)
(0.87095 0.260508 0.408771)
(0.875608 0.258668 0.399935)
(0.879776 0.256868 0.391679)
(0.883483 0.255129 0.383979)
(0.442612 0.253467 0.376807)
(0.391483 0.31231 0.527556)
(0.788808 0.310607 0.512956)
(0.80006 0.308677 0.498814)
(0.810474 0.306545 0.485174)
(0.820092 0.304239 0.472071)
(0.828959 0.301787 0.459535)
(0.837118 0.299217 0.447586)
(0.84461 0.296559 0.43624)
(0.851474 0.293841 0.425501)
(0.857748 0.291091 0.41537)
(0.863467 0.288338 0.405841)
(0.868661 0.285605 0.396901)
(0.873362 0.282919 0.388534)
(0.877596 0.280301 0.38072)
(0.881387 0.277774 0.373435)
(0.441587 0.275353 0.366652)
(0.390379 0.347156 0.508734)
(0.786486 0.344461 0.494893)
(0.797525 0.341539 0.481494)
(0.807754 0.338421 0.468578)
(0.817217 0.335138 0.456177)
(0.825959 0.331721 0.444319)
(0.834024 0.328203 0.433023)
(0.841451 0.324616 0.422301)
(0.848281 0.320991 0.412158)
(0.854549 0.317358 0.402593)
(0.860289 0.313745 0.3936)
(0.865531 0.31018 0.385166)
(0.870304 0.306688 0.377276)
(0.874631 0.303294 0.36991)
(0.878535 0.300016 0.363045)
(0.440192 0.296874 0.356654)
(0.388788 0.380894 0.489938)
(0.783191 0.377245 0.47688)
(0.79402 0.373372 0.464246)
(0.804072 0.369312 0.452073)
(0.813393 0.365097 0.440393)
(0.822025 0.360764 0.42923)
(0.830013 0.356347 0.418601)
(0.837397 0.351881 0.408516)
(0.844215 0.347399 0.39898)
(0.850502 0.342931 0.38999)
(0.856289 0.33851 0.381541)
(0.861605 0.334161 0.373619)
(0.866476 0.329912 0.36621)
(0.870924 0.325786 0.359295)
(0.874968 0.321804 0.35285)
(0.438445 0.317982 0.346851)
(0.38673 0.413376 0.47127)
(0.778965 0.408819 0.459011)
(0.789592 0.404046 0.447158)
(0.799478 0.399095 0.435745)
(0.80867 0.394004 0.424799)
(0.81721 0.38881 0.414342)
(0.825141 0.383551 0.40439)
(0.832502 0.378263 0.394951)
(0.839331 0.372981 0.386028)
(0.84566 0.367737 0.377619)
(0.851519 0.362563 0.369716)
(0.856934 0.357487 0.362309)
(0.861929 0.352534 0.355382)
(0.866522 0.347729 0.348916)
(0.87073 0.34309 0.342891)
(0.43637 0.338635 0.337282)
(0.384231 0.44447 0.452829)
(0.773861 0.439061 0.441384)
(0.784296 0.433445 0.430323)
(0.79403 0.427664 0.419678)
(0.803107 0.421758 0.409475)
(0.811573 0.415767 0.399731)
(0.819467 0.409731 0.390461)
(0.826827 0.403686 0.381671)
(0.833689 0.397669 0.373363)
(0.840084 0.391713 0.365535)
(0.846038 0.385849 0.358179)
(0.851576 0.380105 0.351284)
(0.856718 0.374508 0.344836)
(0.86148 0.369079 0.338817)
(0.865874 0.363838 0.333206)
(0.43399 0.3588 0.327981)
(0.381321 0.474063 0.434718)
(0.76794 0.467865 0.424092)
(0.778195 0.461472 0.41383)
(0.787791 0.454929 0.403959)
(0.796773 0.448278 0.3945)
(0.805182 0.441561 0.385471)
(0.81306 0.434819 0.376882)
(0.820441 0.428088 0.36874)
(0.827358 0.421407 0.361045)
(0.83384 0.414807 0.353794)
(0.839911 0.408321 0.34698)
(0.845594 0.401976 0.340592)
(0.850903 0.395797 0.334617)
(0.855853 0.389805 0.329036)
(0.860451 0.384019 0.323832)
(0.431332 0.37845 0.318982)
(0.378033 0.502063 0.417036)
(0.76127 0.495146 0.407232)
(0.77136 0.48805 0.397768)
(0.780836 0.48082 0.388668)
(0.78974 0.473501 0.379952)
(0.798113 0.466135 0.371633)
(0.805994 0.458764 0.363721)
(0.813416 0.451424 0.35622)
(0.820409 0.444154 0.349131)
(0.826998 0.436985 0.342449)
(0.833207 0.429948 0.336168)
(0.839052 0.423071 0.330278)
(0.844547 0.416376 0.324765)
(0.849701 0.409884 0.319613)
(0.854519 0.40361 0.314805)
(0.428422 0.397566 0.31032)
(0.374404 0.528401 0.399882)
(0.753927 0.520843 0.390894)
(0.763869 0.513124 0.382222)
(0.773242 0.505289 0.373887)
(0.782088 0.497384 0.365905)
(0.790445 0.489451 0.358286)
(0.798349 0.481532 0.35104)
(0.805831 0.473665 0.344169)
(0.812918 0.465884 0.337674)
(0.819634 0.458223 0.331549)
(0.825997 0.45071 0.325788)
(0.832021 0.443372 0.320382)
(0.837716 0.436229 0.315319)
(0.843087 0.429301 0.310583)
(0.848134 0.422601 0.306157)
(0.425288 0.416137 0.302022)
(0.370475 0.553032 0.383346)
(0.745993 0.544918 0.375165)
(0.755806 0.536661 0.367274)
(0.765096 0.528308 0.35969)
(0.773902 0.519904 0.352427)
(0.782262 0.511491 0.345495)
(0.790207 0.50311 0.338899)
(0.797768 0.494798 0.332642)
(0.804967 0.486589 0.326724)
(0.811824 0.478514 0.321139)
(0.818356 0.470601 0.315883)
(0.824571 0.462874 0.310945)
(0.830476 0.455353 0.306314)
(0.836073 0.448053 0.301977)
(0.841355 0.440986 0.297917)
(0.421958 0.434157 0.294117)
(0.36629 0.57594 0.367518)
(0.737556 0.567358 0.360126)
(0.747259 0.558653 0.352997)
(0.756485 0.549871 0.346145)
(0.76527 0.541058 0.339583)
(0.773651 0.532253 0.333316)
(0.781656 0.523498 0.327351)
(0.78931 0.514826 0.321688)
(0.796635 0.506272 0.316326)
(0.803647 0.497864 0.311262)
(0.810357 0.489627 0.306489)
(0.816772 0.481584 0.301999)
(0.822895 0.473752 0.297782)
(0.82872 0.466144 0.293825)
(0.834238 0.458769 0.290112)
(0.418459 0.451629 0.286628)
(0.361893 0.293481 0.352474)
(0.728706 0.289085 0.345849)
(0.738319 0.284631 0.339459)
(0.7475 0.280145 0.333316)
(0.756284 0.275647 0.327429)
(0.764702 0.271158 0.321803)
(0.77278 0.266698 0.316443)
(0.780542 0.262283 0.311349)
(0.788004 0.25793 0.30652)
(0.79518 0.253652 0.301952)
(0.802076 0.249463 0.29764)
(0.808696 0.245371 0.293576)
(0.815037 0.241386 0.28975)
(0.82109 0.237513 0.286151)
(0.826839 0.233755 0.282765)
(0.414818 0.230114 0.279576)
(0.380229 0.0647205 0.646036)
(0.767094 0.0665027 0.627957)
(0.77993 0.0681787 0.610375)
(0.791903 0.0697498 0.593342)
(0.803038 0.0712189 0.576904)
(0.813362 0.0725898 0.561099)
(0.822905 0.0738674 0.545954)
(0.831694 0.0750575 0.53149)
(0.839757 0.0761667 0.517717)
(0.847125 0.0772024 0.504641)
(0.853824 0.0781723 0.492258)
(0.859882 0.0790845 0.480559)
(0.865327 0.0799474 0.469529)
(0.870185 0.0807693 0.459149)
(0.874484 0.0815586 0.449394)
(0.438248 0.0823234 0.440239)
(0.382011 0.148066 0.629731)
(0.770553 0.151121 0.612175)
(0.783177 0.153958 0.595104)
(0.794943 0.156583 0.578572)
(0.805878 0.159004 0.562621)
(0.816011 0.161229 0.547289)
(0.825372 0.163272 0.532603)
(0.833993 0.165145 0.518583)
(0.841902 0.166863 0.505238)
(0.84913 0.168444 0.492574)
(0.855706 0.169903 0.480586)
(0.861657 0.171258 0.469267)
(0.867011 0.172528 0.458599)
(0.871796 0.173729 0.448566)
(0.876038 0.174879 0.439142)
(0.439013 0.175996 0.430301)
(0.383284 0.185198 0.612914)
(0.772987 0.187233 0.595925)
(0.785393 0.189041 0.579409)
(0.796948 0.190632 0.563418)
(0.807684 0.192019 0.547995)
(0.81763 0.193214 0.533175)
(0.82682 0.194235 0.518984)
(0.835285 0.195097 0.505441)
(0.843056 0.195821 0.492557)
(0.850164 0.196424 0.480334)
(0.856638 0.196927 0.468769)
(0.862507 0.197351 0.457853)
(0.867797 0.197714 0.447571)
(0.872537 0.198037 0.437904)
(0.876751 0.198337 0.428828)
(0.439365 0.198634 0.420318)
(0.384046 0.222002 0.59566)
(0.774396 0.22302 0.579278)
(0.786577 0.223803 0.563357)
(0.797921 0.224366 0.547947)
(0.808459 0.224726 0.533089)
(0.818226 0.2249 0.518817)
(0.827255 0.224909 0.505155)
(0.835579 0.224773 0.492122)
(0.843229 0.224515 0.479727)
(0.850237 0.224156 0.467972)
(0.856632 0.223719 0.456855)
(0.862443 0.223226 0.446365)
(0.867697 0.222699 0.436488)
(0.87242 0.222159 0.427205)
(0.876635 0.221627 0.418493)
(0.43931 0.22112 0.410326)
(0.384301 0.2583 0.578047)
(0.774788 0.25831 0.562311)
(0.786739 0.25808 0.547023)
(0.797871 0.257629 0.53223)
(0.808217 0.256977 0.517972)
(0.817813 0.256148 0.504279)
(0.826693 0.255164 0.491177)
(0.834891 0.254051 0.478682)
(0.842439 0.252832 0.466803)
(0.849368 0.251533 0.455541)
(0.855708 0.250178 0.444893)
(0.861487 0.248793 0.434849)
(0.866731 0.2474 0.425394)
(0.871465 0.246022 0.41651)
(0.875711 0.244679 0.408175)
(0.438857 0.243391 0.400364)
(0.384056 0.293916 0.560161)
(0.774176 0.292935 0.545106)
(0.785896 0.291711 0.530485)
(0.796818 0.290268 0.516341)
(0.806979 0.28863 0.502713)
(0.816414 0.286823 0.48963)
(0.825158 0.284874 0.477115)
(0.833246 0.282812 0.465183)
(0.840711 0.280662 0.453843)
(0.847584 0.278454 0.443094)
(0.853893 0.276214 0.432934)
(0.859665 0.273967 0.423353)
(0.864926 0.271739 0.414335)
(0.869699 0.269553 0.405864)
(0.874004 0.267429 0.397916)
(0.438021 0.265388 0.390468)
(0.38332 0.32868 0.542093)
(0.772583 0.326734 0.52775)
(0.784072 0.324545 0.513825)
(0.79479 0.32214 0.500359)
(0.804772 0.319547 0.487388)
(0.814058 0.316797 0.47494)
(0.822682 0.31392 0.463036)
(0.830679 0.310946 0.451689)
(0.838081 0.307905 0.440906)
(0.844919 0.304826 0.430689)
(0.851221 0.301738 0.421032)
(0.857012 0.298669 0.411926)
(0.862316 0.295644 0.403357)
(0.867155 0.292686 0.395308)
(0.871547 0.289818 0.387756)
(0.436816 0.287059 0.380678)
(0.38211 0.362434 0.523935)
(0.77004 0.359557 0.510331)
(0.781302 0.356438 0.497128)
(0.791821 0.35311 0.484365)
(0.801637 0.349605 0.472074)
(0.810787 0.345955 0.460282)
(0.819307 0.342194 0.449007)
(0.827231 0.338353 0.438262)
(0.834591 0.334466 0.428053)
(0.841417 0.330563 0.418381)
(0.847736 0.326674 0.409239)
(0.85357 0.322828 0.400619)
(0.858943 0.31905 0.392507)
(0.863873 0.315364 0.384886)
(0.868377 0.311793 0.377735)
(0.435262 0.308354 0.37103)
(0.380443 0.395032 0.505786)
(0.766587 0.391265 0.492943)
(0.777626 0.387262 0.480483)
(0.787956 0.383059 0.468442)
(0.797617 0.37869 0.45685)
(0.806647 0.374191 0.44573)
(0.81508 0.369597 0.4351)
(0.822951 0.364944 0.42497)
(0.830291 0.360264 0.415346)
(0.837127 0.35559 0.406227)
(0.843486 0.350952 0.397609)
(0.849388 0.34638 0.389481)
(0.854853 0.3419 0.381831)
(0.859899 0.337535 0.374642)
(0.864536 0.333306 0.367894)
(0.433377 0.329232 0.361564)
(0.378342 0.426344 0.487746)
(0.76227 0.421736 0.475681)
(0.773095 0.416901 0.46398)
(0.783248 0.411877 0.452675)
(0.792769 0.406702 0.441794)
(0.801694 0.401413 0.431359)
(0.810059 0.396047 0.421383)
(0.817897 0.39064 0.411877)
(0.825237 0.385227 0.402845)
(0.832106 0.379842 0.394286)
(0.838526 0.374514 0.386195)
(0.844518 0.369274 0.378562)
(0.850098 0.364146 0.371375)
(0.85528 0.359155 0.364618)
(0.860074 0.354319 0.358271)
(0.431187 0.349657 0.352314)
(0.375835 0.456254 0.469915)
(0.757145 0.450864 0.45864)
(0.767767 0.445258 0.447709)
(0.777757 0.439477 0.43715)
(0.787153 0.433559 0.426988)
(0.795992 0.427545 0.417243)
(0.804308 0.421473 0.407927)
(0.812132 0.415379 0.399048)
(0.819493 0.4093 0.39061)
(0.826414 0.403268 0.382612)
(0.832917 0.397314 0.375048)
(0.839019 0.391466 0.367909)
(0.844734 0.385751 0.361183)
(0.850072 0.38019 0.354855)
(0.855039 0.374802 0.348906)
(0.428715 0.369601 0.343316)
(0.372952 0.484672 0.452394)
(0.751274 0.478564 0.441916)
(0.761708 0.472254 0.431759)
(0.771549 0.465784 0.42195)
(0.780837 0.459196 0.41251)
(0.789608 0.452529 0.403456)
(0.797894 0.445822 0.394799)
(0.805725 0.439113 0.386547)
(0.813126 0.432438 0.378701)
(0.82012 0.425829 0.37126)
(0.826724 0.419316 0.364218)
(0.832955 0.412927 0.357568)
(0.838822 0.406686 0.351298)
(0.844331 0.400615 0.345392)
(0.849485 0.39473 0.339835)
(0.425986 0.389043 0.334604)
(0.369727 0.511524 0.435282)
(0.744727 0.504771 0.425602)
(0.754988 0.497831 0.416219)
(0.764698 0.490749 0.407157)
(0.773897 0.483565 0.398436)
(0.782618 0.476322 0.390069)
(0.790892 0.469058 0.382066)
(0.798748 0.46181 0.374433)
(0.806208 0.454613 0.367172)
(0.813292 0.447499 0.360281)
(0.820015 0.440498 0.353754)
(0.82639 0.433635 0.347585)
(0.832422 0.426934 0.34176)
(0.838116 0.420414 0.336268)
(0.843466 0.414089 0.331091)
(0.423028 0.407968 0.32621)
(0.366199 0.536762 0.418677)
(0.737581 0.529441 0.409787)
(0.747686 0.521951 0.401171)
(0.757283 0.514337 0.392849)
(0.766411 0.50664 0.384838)
(0.7751 0.498902 0.377148)
(0.783382 0.49116 0.369789)
(0.79128 0.483452 0.362765)
(0.798815 0.475811 0.356078)
(0.806004 0.468268 0.349724)
(0.81286 0.46085 0.3437)
(0.819391 0.453583 0.337998)
(0.8256 0.446487 0.332608)
(0.831485 0.43958 0.327515)
(0.837039 0.432872 0.322706)
(0.419866 0.42637 0.318161)
(0.362407 0.560361 0.402667)
(0.729917 0.552555 0.394557)
(0.739884 0.5446 0.386696)
(0.749387 0.536538 0.3791)
(0.758462 0.528412 0.371783)
(0.767138 0.520262 0.364756)
(0.775443 0.512126 0.358026)
(0.783399 0.504039 0.351595)
(0.791024 0.496032 0.345465)
(0.798331 0.488135 0.339634)
(0.805331 0.480375 0.334097)
(0.812027 0.472773 0.328847)
(0.818419 0.465347 0.323874)
(0.8245 0.458113 0.319167)
(0.830257 0.451078 0.314709)
(0.416527 0.444248 0.310485)
(0.358393 0.285874 0.387337)
(0.72182 0.281861 0.379989)
(0.731668 0.277777 0.372864)
(0.741096 0.273646 0.365975)
(0.750135 0.269486 0.359335)