/*--------------------------------*- C++ -*----------------------------------*\
| =========                 |                                                 |
| \\      /  F ield         | OpenFOAM: The Open Source CFD Toolbox           |
|  \\    /   O peration     | Version:  2112                                  |
|   \\  /    A nd           | Website:  www.openfoam.com                      |
|    \\/     M anipulation  |                                                 |
\*---------------------------------------------------------------------------*/
FoamFile
{
    version     2.0;
    format      ascii;
    arch        "LSB;label=32;scalar=64";
    class       volScalarField;
    location    "0";
    object      vf_nn;
}
// * * * * * * * * * * * * * * * * * * * * * * * * * * * * * * * * * * * * * //

dimensions      [0 0 0 0 0 0 0];

internalField   nonuniform List<scalar> 
4096
(
-0.562754
-0.511895
-0.460305
-0.408052
-0.355195
-0.301795
-0.247905
-0.193578
-0.138863
-0.0838027
-0.0284404
0.0271856
0.0830395
0.139088
0.195301
0.251649
-0.551251
-0.500284
-0.4486
-0.396261
-0.343331
-0.289865
-0.235919
-0.181543
-0.126784
-0.0716875
-0.0162926
0.0393626
0.0952434
0.151318
0.207555
0.26393
-0.53735
-0.486348
-0.43464
-0.382288
-0.329354
-0.275894
-0.221961
-0.167605
-0.112872
-0.0578038
-0.0024405
0.0531816
0.109029
0.165071
0.221278
0.277624
-0.521083
-0.470116
-0.418454
-0.366161
-0.313294
-0.259909
-0.206059
-0.15179
-0.0971484
-0.0421741
0.0130945
0.0686224
0.124377
0.180329
0.236451
0.292717
-0.502492
-0.451629
-0.400084
-0.347918
-0.295188
-0.241947
-0.188247
-0.134132
-0.0796457
-0.0248281
0.0302847
0.0856591
0.141264
0.197072
0.253055
0.30919
-0.481631
-0.430941
-0.379581
-0.32761
-0.275083
-0.222053
-0.168567
-0.11467
-0.0604023
-0.00580211
0.049096
0.10426
0.159661
0.215271
0.271065
0.32702
-0.458567
-0.408115
-0.357006
-0.305295
-0.253037
-0.200281
-0.147072
-0.0934535
-0.0394637
0.0148615
0.069489
0.124389
0.179533
0.234895
0.290452
0.346181
-0.433377
-0.383226
-0.33243
-0.281042
-0.229114
-0.176692
-0.12382
-0.0705372
-0.0168812
0.0371145
0.0914189
0.146003
0.200842
0.25591
0.311184
0.366644
-0.406146
-0.356357
-0.305934
-0.254928
-0.203387
-0.151355
-0.0988746
-0.0459819
0.00728814
0.060904
0.114837
0.169059
0.223547
0.278276
0.333226
0.388376
-0.376971
-0.3276
-0.277605
-0.227035
-0.175935
-0.124346
-0.0723074
-0.0198537
0.0329829
0.0861728
0.139689
0.193507
0.247602
0.301954
0.356541
0.411344
-0.345956
-0.297054
-0.247538
-0.197453
-0.146842
-0.0957434
-0.0441927
0.00777766
0.0601379
0.112861
0.165921
0.219295
0.272961
0.326899
0.381089
0.435513
-0.313208
-0.264822
-0.215831
-0.166276
-0.116198
-0.0656311
-0.0146087
0.0368392
0.0886854
0.140905
0.193474
0.246371
0.299575
0.353068
0.406831
0.460845
-0.278843
-0.231014
-0.182588
-0.133602
-0.0840937
-0.0340949
0.0163642
0.0672563
0.118556
0.170241
0.222289
0.27468
0.327395
0.380416
0.433724
0.487303
-0.242976
-0.195741
-0.147913
-0.0995295
-0.0506224
-0.00122185
0.0486451
0.0989535
0.14968
0.200805
0.252307
0.304168
0.35637
0.408896
0.461729
0.51485
-0.205726
-0.159113
-0.111912
-0.0641572
-0.015877
0.0329013
0.082153
0.131856
0.181989
0.232533
0.28347
0.334782
0.386453
0.438465
0.490803
0.543449
-0.16721
-0.121241
-0.0746895
-0.0275831
0.0200512
0.0681892
0.116809
0.16589
0.215414
0.265362
0.315719
0.366468
0.417593
0.469079
0.520908
0.573062
-0.526862
-0.477094
-0.426561
-0.375326
-0.323447
-0.27098
-0.217979
-0.164494
-0.110573
-0.0562606
-0.00159896
0.0533724
0.108616
0.164098
0.219786
0.275648
-0.516575
-0.466657
-0.415988
-0.364626
-0.312632
-0.260061
-0.206965
-0.153394
-0.0993953
-0.0450116
0.00971545
0.0647474
0.120048
0.175584
0.231324
0.287237
-0.503907
-0.453909
-0.403171
-0.351754
-0.299714
-0.247108
-0.193985
-0.140396
-0.0863844
-0.0319942
0.0227352
0.0777664
0.133065
0.188597
0.244334
0.300246
-0.488884
-0.438874
-0.388137
-0.336732
-0.284716
-0.232142
-0.17906
-0.125519
-0.0715605
-0.0172273
0.0374423
0.0924125
0.14765
0.203123
0.258802
0.31466
-0.471541
-0.421587
-0.370919
-0.319595
-0.26767
-0.215196
-0.162221
-0.108792
-0.0549507
-0.000736856
0.0538126
0.108663
0.163783
0.219141
0.27471
0.330464
-0.451929
-0.402097
-0.351564
-0.300387
-0.248619
-0.19631
-0.143506
-0.0902529
-0.0365899
0.0174447
0.0718156
0.12649
0.181437
0.236628
0.292037
0.347637
-0.430105
-0.38046
-0.330127
-0.279161
-0.227614
-0.175533
-0.122962
-0.069945
-0.0165194
0.0372786
0.0914153
0.14586
0.200582
0.255556
0.310756
0.366157
-0.406141
-0.356745
-0.306675
-0.255982
-0.204715
-0.152922
-0.100643
-0.0479192
0.00521337
0.0587205
0.11257
0.166734
0.221183
0.275892
0.330837
0.385995
-0.380118
-0.33103
-0.28128
-0.230919
-0.179991
-0.128541
-0.076609
-0.0242321
0.0285552
0.0817208
0.135235
0.18907
0.2432
0.297601
0.352249
0.407122
-0.352124
-0.3034
-0.254027
-0.20405
-0.153515
-0.102461
-0.050926
0.00105445
0.0534484
0.106226
0.15936
0.212823
0.266592
0.320644
0.374956
0.429508
-0.322256
-0.273948
-0.225002
-0.175461
-0.125366
-0.0747556
-0.0236647
0.0278743
0.0798315
0.132179
0.184891
0.237944
0.291314
0.34498
0.398921
0.453117
-0.290618
-0.242773
-0.1943
-0.145239
-0.0956293
-0.0455052
0.00510059
0.0561582
0.10764
0.15952
0.211775
0.264382
0.31732
0.370568
0.424106
0.477915
-0.257317
-0.209978
-0.162019
-0.113479
-0.064392
-0.0147914
0.0352933
0.0858348
0.136808
0.188188
0.239955
0.292086
0.344562
0.397364
0.450472
0.503867
-0.222466
-0.175668
-0.128259
-0.0802734
-0.031743
0.0173024
0.0668356
0.116832
0.167267
0.218121
0.269373
0.321003
0.372993
0.425324
0.477978
0.530937
-0.186177
-0.139952
-0.0931219
-0.0457188
0.0022283
0.0506926
0.0996495
0.149076
0.198952
0.249258
0.299974
0.351082
0.402565
0.454406
0.506586
0.559088
-0.148562
-0.102935
-0.0567074
-0.00990936
0.0374333
0.0852966
0.133658
0.182498
0.231797
0.281537
0.3317
0.382271
0.433232
0.484567
0.536257
0.588285
-0.489071
-0.440415
-0.390962
-0.34077
-0.289893
-0.238387
-0.186303
-0.13369
-0.0805949
-0.0270624
0.0268649
0.081147
0.135745
0.190624
0.245749
0.301087
-0.479922
-0.431078
-0.38145
-0.331094
-0.280067
-0.228421
-0.176207
-0.123475
-0.0702698
-0.0166353
0.037387
0.0917579
0.14644
0.201399
0.2566
0.312013
-0.468415
-0.41945
-0.369713
-0.319262
-0.26815
-0.216431
-0.164155
-0.111369
-0.0581178
-0.00444442
0.0496111
0.104011
0.158718
0.2137
0.268924
0.324359
-0.454571
-0.405551
-0.355772
-0.305291
-0.254162
-0.202437
-0.150164
-0.0973884
-0.0441553
0.00949472
0.0635227
0.117892
0.172568
0.227517
0.28271
0.338116
-0.438421
-0.38941
-0.339656
-0.289212
-0.238132
-0.186465
-0.134259
-0.0815587
-0.0284058
0.0251598
0.0791008
0.133382
0.18797
0.242833
0.297942
0.353268
-0.420006
-0.371071
-0.321405
-0.271063
-0.220096
-0.168552
-0.116476
-0.0639122
-0.0109001
0.0425221
0.0963184
0.150455
0.204901
0.259626
0.314601
0.369799
-0.399382
-0.350585
-0.301071
-0.250894
-0.200102
-0.148742
-0.0968571
-0.0444888
0.00832434
0.0615463
0.115143
0.169082
0.223334
0.27787
0.332663
0.387687
-0.376612
-0.328013
-0.278713
-0.228761
-0.178204
-0.127087
-0.0754509
-0.0233351
0.0292238
0.0821918
0.135537
0.189228
0.243237
0.297537
0.352103
0.406908
-0.35177
-0.303429
-0.2544
-0.20473
-0.154465
-0.103646
-0.0523136
-0.000503685
0.0517492
0.104413
0.157457
0.210853
0.264573
0.318594
0.372889
0.427435
-0.32494
-0.276911
-0.228207
-0.178874
-0.128954
-0.0784856
-0.027507
0.0239478
0.0758464
0.128159
0.180857
0.233914
0.287304
0.341003
0.394989
0.449238
-0.296211
-0.248546
-0.200219
-0.151272
-0.101745
-0.0516754
-0.00109729
0.0499571
0.101458
0.153377
0.205688
0.258366
0.311387
0.364729
0.418369
0.472285
-0.265682
-0.218428
-0.170523
-0.122008
-0.0729188
-0.0232904
0.0268453
0.0774588
0.128522
0.18001
0.231897
0.284161
0.336779
0.389729
0.442991
0.496544
-0.233454
-0.186653
-0.139213
-0.0911694
-0.0425574
0.00659155
0.0562482
0.106385
0.156977
0.208
0.259431
0.31125
0.363434
0.415964
0.46882
0.521981
-0.199632
-0.153322
-0.106383
-0.0588467
-0.0107458
0.037891
0.0870369
0.136667
0.186758
0.237288
0.288236
0.339582
0.391307
0.443392
0.495816
0.548561
-0.164325
-0.118538
-0.0721301
-0.0251309
0.0224305
0.0705279
0.119137
0.168235
0.217801
0.267814
0.318256
0.369109
0.420353
0.471971
0.523943
0.57625
-0.127639
-0.0824027
-0.0365511
0.0098872
0.0568864
0.104423
0.152474
0.20102
0.250042
0.299521
0.349439
0.39978
0.450526
0.50166
0.553162
0.605015
-0.449511
-0.401983
-0.353624
-0.304491
-0.254637
-0.204112
-0.152966
-0.101249
-0.0490047
0.00372108
0.0568859
0.110449
0.164371
0.218615
0.273144
0.327925
-0.441421
-0.39367
-0.345102
-0.295773
-0.245734
-0.195038
-0.143733
-0.0918664
-0.0394838
0.0133714
0.0666575
0.120335
0.174365
0.228711
0.283339
0.338216
-0.431003
-0.383093
-0.33438
-0.284918
-0.234761
-0.183958
-0.132557
-0.0806055
-0.0281467
0.0247765
0.0781238
0.131856
0.185937
0.240331
0.295004
0.349925
-0.418272
-0.370266
-0.321472
-0.271944
-0.221732
-0.170886
-0.119454
-0.0674793
-0.0150062
0.0379244
0.0912734
0.145003
0.199079
0.253466
0.308131
0.363045
-0.403253
-0.355215
-0.306404
-0.256873
-0.20667
-0.155846
-0.104444
-0.0525088
-8.23894e-05
0.052796
0.106089
0.15976
0.213774
0.268101
0.322708
0.377565
-0.385984
-0.337977
-0.289212
-0.23974
-0.18961
-0.138868
-0.0875581
-0.0357229
0.0165977
0.069366
0.122546
0.176103
0.230004
0.284218
0.338716
0.393469
-0.366513
-0.318598
-0.26994
-0.220589
-0.170592
-0.119993
-0.0688345
-0.0171574
0.0350004
0.0876028
0.140615
0.194005
0.247742
0.301795
0.356136
0.410738
-0.344899
-0.297135
-0.248644
-0.199473
-0.149666
-0.099268
-0.048318
0.00314531
0.0550858
0.107469
0.160263
0.213436
0.266959
0.320804
0.374943
0.429351
-0.321209
-0.273654
-0.225386
-0.17645
-0.126891
-0.0767483
-0.0260603
0.0251368
0.0768087
0.128923
0.18145
0.234359
0.287623
0.341215
0.39511
0.449283
-0.29552
-0.248227
-0.200236
-0.15159
-0.10233
-0.0524942
-0.00211838
0.0487633
0.100119
0.151918
0.204132
0.256734
0.309697
0.362996
0.416607
0.470505
-0.267916
-0.220937
-0.173273
-0.124966
-0.0760534
-0.0265717
0.0234456
0.0739668
0.124962
0.176403
0.228264
0.280518
0.333141
0.38611
0.4394
0.49299
-0.238488
-0.191869
-0.144579
-0.0966557
-0.0481353
0.00094896
0.0505657
0.100686
0.151281
0.202326
0.253796
0.305667
0.357916
0.41052
0.463457
0.516705
-0.207332
-0.161116
-0.114241
-0.0667427
-0.0186539
0.0299944
0.0791733
0.128856
0.179017
0.229632
0.280678
0.332134
0.383977
0.436187
0.488741
0.54162
-0.174548
-0.128773
-0.08235
-0.0353121
0.0123104
0.0604892
0.109198
0.158412
0.208108
0.258264
0.308858
0.359871
0.411282
0.463071
0.515218
0.567701
-0.140237
-0.0949361
-0.0489973
-0.00245059
0.0446761
0.0923571
0.140568
0.189287
0.238493
0.288165
0.338285
0.388832
0.439788
0.491134
0.54285
0.594916
-0.104503
-0.0597034
-0.0142751
0.0317551
0.0783619
0.125522
0.173214
0.221417
0.270112
0.319281
0.368905
0.418968
0.469451
0.520335
0.571603
0.623232
-0.408316
-0.361921
-0.314665
-0.266602
-0.21778
-0.16825
-0.118059
-0.0672537
-0.0158802
0.0360177
0.0883972
0.141217
0.194437
0.248018
0.301923
0.356117
-0.401205
-0.354556
-0.307062
-0.258773
-0.209739
-0.160009
-0.109632
-0.0586522
-0.00711501
0.0449364
0.0974603
0.150416
0.203765
0.257469
0.311493
0.365801
-0.391801
-0.34496
-0.297287
-0.248834
-0.199651
-0.149784
-0.0992819
-0.0481887
0.00345178
0.0555973
0.108207
0.161242
0.214665
0.268438
0.322528
0.376899
-0.380114
-0.333141
-0.285352
-0.236798
-0.187526
-0.137585
-0.0870191
-0.0358732
0.0158105
0.0679912
0.12063
0.173687
0.227129
0.280918
0.335021
0.389406
-0.366165
-0.319122
-0.271278
-0.222683
-0.173385
-0.12343
-0.072862
-0.0217234
0.0299445
0.0821024
0.134712
0.187738
0.241144
0.294897
0.348964
0.403314
-0.349986
-0.302933
-0.255095
-0.206521
-0.157257
-0.107348
-0.0568369
-0.00576426
0.0458303
0.0979088
0.150435
0.203374
0.256693
0.310359
0.36434
0.418608
-0.33162
-0.284616
-0.236843
-0.188349
-0.139178
-0.0893743
-0.0389776
0.0119723
0.0634376
0.115382
0.167772
0.220573
0.273754
0.327284
0.381133
0.435272
-0.31112
-0.264222
-0.216572
-0.168215
-0.119195
-0.0695516
-0.0193249
0.0314477
0.0827305
0.134489
0.186691
0.239305
0.292301
0.345648
0.39932
0.453287
-0.288547
-0.241811
-0.194339
-0.146175
-0.0973586
-0.04793
0.00207384
0.0526176
0.103667
0.155191
0.207158
0.259538
0.312302
0.365424
0.418875
0.47263
-0.263972
-0.217451
-0.17021
-0.12229
-0.0737292
-0.0245657
0.0251659
0.0754324
0.126202
0.177445
0.229131
0.281234
0.333726
0.386581
0.439773
0.493277
-0.237472
-0.191216
-0.144255
-0.0966282
-0.0483715
0.000480006
0.0498936
0.0998381
0.150284
0.201203
0.252569
0.304354
0.356535
0.409085
0.461982
0.5152
-0.209133
-0.163188
-0.116553
-0.0692641
-0.021355
0.0271416
0.0761953
0.125777
0.17586
0.226417
0.277424
0.328857
0.380691
0.432903
0.485471
0.53837
-0.179043
-0.133453
-0.0871854
-0.0402748
0.00724704
0.0553501
0.104006
0.153189
0.202874
0.253035
0.303651
0.354698
0.406154
0.457998
0.510206
0.562757
-0.147297
-0.102099
-0.0562364
-0.00974055
0.0373589
0.0850345
0.133261
0.182013
0.231268
0.281003
0.331198
0.381832
0.432883
0.484331
0.536155
0.588331
-0.113991
-0.0692186
-0.0237931
0.0222566
0.0689034
0.116122
0.16389
0.212184
0.260984
0.310268
0.360019
0.410215
0.460837
0.511867
0.563282
0.615061
-0.0792223
-0.034904
0.0100569
0.0556341
0.101803
0.148541
0.195828
0.243642
0.291964
0.340777
0.390062
0.439801
0.489975
0.540566
0.591553
0.642915
-0.365617
-0.320354
-0.274202
-0.227211
-0.179427
-0.130898
-0.0816707
-0.0317897
0.0186999
0.0697544
0.121331
0.173387
0.225883
0.278779
0.332036
0.385618
-0.359407
-0.313863
-0.267447
-0.220204
-0.172184
-0.123432
-0.0739951
-0.0239171
0.0267578
0.0779867
0.129728
0.18194
0.234584
0.28762
0.341013
0.394724
-0.350942
-0.305177
-0.258554
-0.21112
-0.162922
-0.114007
-0.0644193
-0.014203
0.036599
0.087945
0.139794
0.192107
0.244844
0.297969
0.351445
0.405238
-0.34023
-0.294301
-0.24753
-0.199964
-0.151648
-0.102629
-0.0529504
-0.00265445
0.0482168
0.0996228
0.151524
0.203882
0.25666
0.309822
0.363332
0.417156
-0.327288
-0.281253
-0.234393
-0.186753
-0.138379
-0.0893151
-0.0396034
0.0107143
0.0615977
0.113008
0.164906
0.217256
0.270022
0.323168
0.376663
0.430472
-0.312141
-0.266059
-0.219168
-0.171514
-0.123139
-0.0740879
-0.0244008
0.0258819
0.0767214
0.12808
0.179922
0.232211
0.284914
0.337997
0.391427
0.445174
-0.294829
-0.248756
-0.201892
-0.154279
-0.105961
-0.0569792
-0.00737273
0.0428198
0.0935614
0.144816
0.196549
0.248727
0.301318
0.354288
0.407609
0.461248
-0.275397
-0.229389
-0.182607
-0.135092
-0.0868858
-0.0380278
0.0114442
0.0614936
0.112085
0.163185
0.21476
0.266778
0.319209
0.372022
0.425188
0.478677
-0.253902
-0.208013
-0.161366
-0.114003
-0.065961
-0.0172791
0.032007
0.0818629
0.132255
0.183152
0.234521
0.286334
0.338561
0.391173
0.444143
0.497441
-0.230409
-0.18469
-0.13823
-0.0910681
-0.0432411
0.00521525
0.0542671
0.103882
0.154028
0.204677
0.255797
0.307362
0.359343
0.411714
0.464448
0.517517
-0.204989
-0.159489
-0.113264
-0.0663515
-0.0187861
0.0293987
0.0781712
0.127501
0.177359
0.227717
0.278547
0.329824
0.381521
0.433614
0.486075
0.538881
-0.17772
-0.132484
-0.0865398
-0.0399209
0.0073395
0.0552103
0.103662
0.152666
0.202196
0.252225
0.302729
0.353682
0.40506
0.45684
0.508996
0.561505
-0.148685
-0.103756
-0.0581335
-0.0118487
0.0350673
0.0825857
0.130679
0.179322
0.228488
0.278155
0.328298
0.378895
0.429923
0.481359
0.53318
0.585361
-0.117973
-0.0733889
-0.0281247
0.0177898
0.0643262
0.111458
0.15916
0.207409
0.256181
0.305455
0.355209
0.405421
0.45607
0.507136
0.558594
0.610422
-0.0856733
-0.0414678
0.003405
0.0489174
0.0950436
0.141759
0.189042
0.236869
0.28522
0.334075
0.383414
0.433217
0.483464
0.534134
0.585207
0.636658
-0.0518781
-0.00808033
0.0363729
0.0814563
0.127146
0.173421
0.22026
0.267642
0.31555
0.363965
0.412868
0.462241
0.512065
0.56232
0.612985
0.664038
-0.321544
-0.277405
-0.23235
-0.186427
-0.13968
-0.0921532
-0.0438921
0.00505928
0.054657
0.104858
0.155619
0.206897
0.258653
0.310845
0.363433
0.41638
-0.316157
-0.271715
-0.226374
-0.180178
-0.133173
-0.0854038
-0.0369135
0.0122539
0.0620554
0.112448
0.163391
0.214842
0.266761
0.319109
0.371848
0.424939
-0.308559
-0.263869
-0.218297
-0.171885
-0.12468
-0.076724
-0.0280611
0.0212661
0.0712154
0.121745
0.172815
0.224385
0.276416
0.328869
0.381708
0.434896
-0.298753
-0.253872
-0.208124
-0.161553
-0.114203
-0.0661178
-0.017339
0.0320917
0.0821332
0.132745
0.183889
0.235524
0.287615
0.340123
0.393013
0.44625
-0.286752
-0.241735
-0.195867
-0.149193
-0.101756
-0.0535976
-0.00475892
0.0447195
0.0947982
0.145438
0.196601
0.248251
0.30035
0.352864
0.405757
0.458995
-0.27258
-0.22748
-0.181549
-0.134828
-0.0873592
-0.0391833
0.00965988
0.0591314
0.109193
0.159808
0.210939
0.262552
0.31461
0.36708
0.419929
0.473124
-0.256267
-0.211141
-0.1652
-0.118487
-0.0710414
-0.0229025
0.0258912
0.0753026
0.125295
0.175833
0.226882
0.278408
0.330377
0.382758
0.435517
0.488625
-0.237856
-0.192757
-0.146861
-0.100209
-0.0528391
-0.0047899
0.0439024
0.0932022
0.143075
0.193487
0.244405
0.295797
0.347631
0.399877
0.452504
0.505481
-0.217398
-0.172377
-0.126577
-0.0800376
-0.0327954
0.0151135
0.0636543
0.112794
0.162498
0.212737
0.263478
0.314691
0.366347
0.418416
0.470868
0.523676
-0.194951
-0.150058
-0.104404
-0.0580262
-0.01096
0.0367606
0.0851029
0.134035
0.183527
0.233548
0.284069
0.335062
0.386498
0.438349
0.490589
0.543188
-0.170581
-0.125863
-0.0804016
-0.0342323
0.012612
0.0600993
0.108199
0.156881
0.206117
0.25588
0.306141
0.356874
0.408052
0.45965
0.51164
0.563996
-0.144359
-0.0998608
-0.0546366
-0.00871895
0.037861
0.0850734
0.13289
0.181282
0.230224
0.27969
0.329654
0.380092
0.430977
0.482287
0.533995
0.586075
-0.116363
-0.0721261
-0.0271794
0.0184468
0.0647235
0.111623
0.159119
0.207185
0.255798
0.304934
0.354568
0.404677
0.455239
0.50623
0.557625
0.609399
-0.0866738
-0.0427364
0.00189591
0.0471948
0.0931332
0.139686
0.186828
0.234537
0.282789
0.331564
0.380839
0.430592
0.480801
0.531445
0.5825
0.633942
-0.0553767
-0.0117722
0.032513
0.0774527
0.123022
0.169198
0.215958
0.263281
0.311146
0.359534
0.408423
0.457795
0.507628
0.557901
0.608591
0.659675
-0.0225574
0.0206847
0.0645942
0.109147
0.154321
0.200095
0.246448
0.293362
0.340817
0.388795
0.437278
0.486246
0.535681
0.585562
0.635867
0.686572
-0.276225
-0.233193
-0.189224
-0.144358
-0.0986391
-0.0521094
-0.00481213
0.0432096
0.0919128
0.141254
0.191192
0.241683
0.292685
0.344158
0.396062
0.448356
-0.271584
-0.228233
-0.183958
-0.138803
-0.0928094
-0.0460201
0.00152256
0.0497762
0.0986984
0.148247
0.198381
0.249058
0.300238
0.351881
0.403947
0.456397
-0.264781
-0.22116
-0.176633
-0.131242
-0.0850275
-0.0380325
0.00970167
0.0581334
0.107221
0.156924
0.207202
0.258014
0.309321
0.361084
0.413265
0.465825
-0.255813
-0.211976
-0.16725
-0.121676
-0.0752946
-0.0281479
0.0197237
0.0682797
0.11748
0.167284
0.217654
0.26855
0.319934
0.371768
0.424015
0.47664
-0.244691
-0.20069
-0.155817
-0.110114
-0.0636198
-0.0163754
0.0315799
0.0802067
0.129466
0.17932
0.22973
0.280659
0.332071
0.383928
0.436196
0.488838
-0.231432
-0.18732
-0.142354
-0.0965743
-0.0500206
-0.00273169
0.0452543
0.0938994
0.143166
0.193018
0.243419
0.294332
0.345723
0.397556
0.449798
0.502414
-0.216065
-0.171892
-0.126886
-0.0810827
-0.0345219
0.0127594
0.0607242
0.109336
0.15856
0.20836
0.258702
0.309552
0.360875
0.412639
0.464811
0.517357
-0.198625
-0.154445
-0.109448
-0.0636728
-0.0171558
0.0300672
0.0779607
0.12649
0.175622
0.225323
0.275559
0.326299
0.37751
0.42916
0.481219
0.533655
-0.179159
-0.13502
-0.090083
-0.0443851
0.00203892
0.0491547
0.0969288
0.145329
0.194322
0.243877
0.293963
0.344549
0.395605
0.447101
0.499007
0.551291
-0.15772
-0.113669
-0.0688399
-0.0232667
0.0230172
0.0699794
0.117588
0.165813
0.214624
0.26399
0.313884
0.364275
0.415136
0.466438
0.518152
0.570249
-0.134366
-0.09045
-0.0457741
-0.000370678
0.0457288
0.0924937
0.139894
0.187902
0.236489
0.285627
0.335288
0.385447
0.436075
0.487146
0.538633
0.590507
-0.109164
-0.0654262
-0.0209463
0.0242453
0.0701187
0.116646
0.163798
0.21155
0.259875
0.308747
0.358141
0.408031
0.458392
0.509199
0.560425
0.612043
-0.0821848
-0.0386657
0.00557853
0.0505191
0.0961285
0.14238
0.189249
0.236709
0.284737
0.33331
0.382402
0.431992
0.482055
0.532566
0.583502
0.634834
-0.0535041
-0.0102406
0.0337317
0.0783859
0.123697
0.169639
0.216191
0.263328
0.311029
0.359271
0.408034
0.457294
0.50703
0.557219
0.607836
0.658856
-0.0232002
0.0197742
0.063442
0.107778
0.15276
0.198364
0.244569
0.291355
0.338701
0.386588
0.434994
0.4839
0.533285
0.583126
0.6334
0.684081
0.00864647
0.0513022
0.0946368
0.138628
0.183253
0.228493
0.274327
0.320738
0.367707
0.415214
0.463242
0.511772
0.560783
0.610255
0.660164
0.710485
-0.229781
-0.187837
-0.144932
-0.101108
-0.0564033
-0.0108596
0.0354818
0.082579
0.13039
0.178872
0.227983
0.27768
0.327921
0.378665
0.429871
0.481497
-0.225815
-0.183536
-0.140313
-0.0961848
-0.0511924
-0.00537573
0.0412241
0.088566
0.136609
0.18531
0.234629
0.284524
0.334954
0.385879
0.437258
0.489052
-0.219736
-0.17717
-0.133678
-0.0892965
-0.0440668
0.00197173
0.0487788
0.0963141
0.144537
0.193408
0.242885
0.292928
0.343499
0.394557
0.446063
0.497979
-0.21154
-0.168737
-0.125025
-0.080441
-0.0350251
0.0111839
0.0581467
0.105824
0.154177
0.203165
0.252751
0.302894
0.353556
0.4047
0.456287
0.50828
-0.201232
-0.158242
-0.11436
-0.0696247
-0.0240738
0.0222544
0.0693218
0.11709
0.165522
0.214579
0.264223
0.314417
0.365124
0.416306
0.467928
0.519954
-0.188828
-0.1457
-0.101699
-0.0568619
-0.0112268
0.0351699
0.0822913
0.130101
0.178561
0.227637
0.277291
0.327489
0.378193
0.429369
0.480982
0.532997
-0.17435
-0.131133
-0.0870627
-0.0421748
0.00349472
0.04991
0.0970358
0.144837
0.193278
0.242325
0.291942
0.342096
0.392753
0.443879
0.495439
0.5474
-0.157831
-0.114574
-0.070483
-0.0255926
0.0200625
0.0664479
0.11353
0.161275
0.209649
0.258621
0.308156
0.358223
0.408788
0.45982
0.511287
0.563155
-0.139311
-0.0960615
-0.051997
-0.00715154
0.0384418
0.0847505
0.131742
0.179386
0.227649
0.2765
0.32591
0.375847
0.426279
0.477178
0.52851
0.580245
-0.118838
-0.075641
-0.0316491
0.0131059
0.0585924
0.10478
0.151637
0.199135
0.247244
0.295934
0.345177
0.394944
0.445204
0.49593
0.547091
0.598657
-0.0964642
-0.0533648
-0.00948936
0.0351316
0.0804684
0.126492
0.173173
0.220485
0.2684
0.31689
0.365927
0.415486
0.465538
0.516055
0.56701
0.618372
-0.0722513
-0.029291
0.0144267
0.058873
0.10402
0.14984
0.196307
0.243395
0.291078
0.339331
0.388128
0.437444
0.487253
0.537528
0.588244
0.63937
-0.046264
-0.00348189
0.0400395
0.084273
0.129193
0.174773
0.22099
0.267819
0.315237
0.363219
0.411744
0.460785
0.51032
0.560324
0.610769
0.661629
-0.0185717
0.0239961
0.0672856
0.111272
0.15593
0.201238
0.247173
0.293712
0.340833
0.388516
0.436738
0.485477
0.53471
0.584413
0.634561
0.685127
0.0107533
0.0530736
0.0960992
0.139807
0.184174
0.22918
0.274803
0.321024
0.367823
0.415179
0.463073
0.511484
0.56039
0.609768
0.659593
0.70984
0.0416358
0.0836795
0.126413
0.169814
0.213863
0.258541
0.303829
0.349708
0.39616
0.443167
0.490711
0.538771
0.587328
0.636359
0.68584
0.735744
-0.18233
-0.141446
-0.099582
-0.0567767
-0.0130677
0.031506
0.0769045
0.123087
0.170012
0.217639
0.265924
0.314825
0.364301
0.414309
0.464808
0.515755
-0.178969
-0.137739
-0.095546
-0.0524269
-0.00841965
0.0364372
0.0821042
0.128541
0.175708
0.223564
0.272067
0.321176
0.37085
0.421048
0.471729
0.522853
-0.173547
-0.132017
-0.0895403
-0.0461546
-0.00189685
0.0431949
0.0890819
0.135725
0.183085
0.231122
0.279795
0.329064
0.37889
0.429232
0.480051
0.531307
-0.166057
-0.124273
-0.0815601
-0.0379555
0.00650445
0.0517824
0.0978407
0.144641
0.192145
0.240314
0.28911
0.338492
0.388423
0.438864
0.489775
0.54112
-0.156502
-0.11451
-0.0716088
-0.0278332
0.0167806
0.0621962
0.108377
0.155286
0.202886
0.25114
0.30001
0.349459
0.399449
0.449943
0.500903
0.552293
-0.144893
-0.102741
-0.0596976
-0.0157988
0.0289206
0.0744257
0.120681
0.16765
0.215299
0.26359
0.312488
0.361957
0.411962
0.462465
0.513431
0.564825
-0.13125
-0.0889832
-0.0458456
-0.00187097
0.0429068
0.0884538
0.134736
0.181719
0.229369
0.277652
0.326533
0.375978
0.425952
0.476422
0.527352
0.578708
-0.1156
-0.073265
-0.0300791
0.013925
0.0587146
0.104257
0.15052
0.197472
0.245078
0.293308
0.342128
0.391506
0.441408
0.491803
0.542656
0.593934
-0.0979786
-0.0556202
-0.0124312
0.0315571
0.0763135
0.121807
0.168007
0.214882
0.262402
0.310536
0.359253
0.408522
0.458312
0.508592
0.55933
0.610493
-0.0784277
-0.03609
0.00705842
0.0509874
0.0956672
0.141069
0.187163
0.23392
0.281312
0.32931
0.377884
0.427006
0.476645
0.526773
0.577358
0.62837
-0.0569963
-0.0147212
0.0283446
0.0721725
0.116735
0.162003
0.207951
0.254551
0.301777
0.3496
0.397994
0.446932
0.496385
0.546325
0.596724
0.647549
-0.0337386
0.00843361
0.051377
0.0950646
0.13947
0.184568
0.230333
0.276738
0.323761
0.371374
0.419554
0.468273
0.517507
0.567227
0.617406
0.668013
-0.00871402
0.0333175
0.0761011
0.119612
0.163825
0.208716
0.254263
0.300441
0.347227
0.394598
0.442531
0.491001
0.539984
0.589454
0.639383
0.689743
0.0180139
0.0598695
0.102459
0.145759
0.189746
0.234399
0.279696
0.325615
0.372136
0.419236
0.466893
0.515085
0.56379
0.612981
0.662633
0.712717
0.0463783
0.0880259
0.13039
0.173448
0.21718
0.261566
0.306585
0.352218
0.398446
0.445248
0.492604
0.540494
0.588894
0.637782
0.687132
0.736915
0.07631
0.117721
0.159831
0.202621
0.246071
0.290164
0.334881
0.380204
0.426115
0.472596
0.519629
0.567193
0.615268
0.66383
0.712855
0.762314
-0.133984
-0.0941264
-0.0532737
-0.0114608
0.0312764
0.0749006
0.119373
0.164655
0.210706
0.257484
0.304948
0.353056
0.401766
0.451034
0.50082
0.551081
-0.131162
-0.0909513
-0.0497618
-0.00762793
0.0354148
0.0793295
0.124078
0.169623
0.215922
0.262938
0.310627
0.358951
0.407866
0.457332
0.507308
0.557752
-0.126332
-0.0858108
-0.0443278
-0.00191707
0.0413863
0.085546
0.130525
0.176285
0.222788
0.269994
0.317864
0.366357
0.415433
0.465053
0.515176
0.565761
-0.119485
-0.0786972
-0.0369647
0.0056781
0.0491967
0.0935555
0.138718
0.184648
0.231308
0.278659
0.326662
0.37528
0.424473
0.474202
0.524428
0.575112
-0.110623
-0.0696107
-0.0276732
0.0151565
0.0588447
0.103357
0.148657
0.194711
0.241481
0.288931
0.337023
0.385721
0.434986
0.484781
0.535068
0.585809
-0.0997517
-0.0585596
-0.0164616
0.0265101
0.0703223
0.114942
0.160334
0.206466
0.253301
0.300804
0.348941
0.397674
0.446968
0.496787
0.547093
0.59785
-0.0868879
-0.0455596
-0.00334533
0.0397234
0.0836149
0.128297
0.173736
0.219901
0.266756
0.31427
0.362407
0.411133
0.460414
0.510214
0.560499
0.611232
-0.072055
-0.0306338
0.011653
0.0547749
0.0987015
0.143402
0.188844
0.234998
0.281831
0.329312
0.377407
0.426084
0.475311
0.525053
0.575277
0.625947
-0.0552835
-0.0138121
0.0285043
0.0716366
0.115555
0.160231
0.205635
0.251736
0.298505
0.345911
0.393924
0.442513
0.491646
0.541292
0.591417
0.641988
-0.0366109
0.00486915
0.0471737
0.0902748
0.134145
0.178755
0.224079
0.270087
0.316752
0.364045
0.411938
0.4604
0.509403
0.558915
0.608906
0.659341
-0.0160807
0.0253679
0.0676206
0.110651
0.154432
0.198938
0.244143
0.290021
0.336545
0.383688
0.431424
0.479724
0.528561
0.577906
0.627727
0.677994
0.00625814
0.0476369
0.0897996
0.132721
0.176377
0.220742
0.265792
0.311504
0.357851
0.40481
0.452356
0.500461
0.5491
0.598244
0.647865
0.697931
0.0303518
0.0716245
0.113661
0.156439
0.199934
0.244124
0.288986
0.334499
0.380638
0.427381
0.474704
0.522584
0.570994
0.619909
0.669299
0.719135
0.0561424
0.097275
0.139153
0.181754
0.225056
0.26904
0.313684
0.358967
0.404868
0.451366
0.49844
0.546066
0.59422
0.642877
0.692009
0.741586
0.0835687
0.12453
0.166218
0.208613
0.251694
0.295443
0.33984
0.384867
0.430504
0.476732
0.52353
0.570877
0.61875
0.667124
0.715973
0.765267
0.112567
0.153329
0.1948
0.236961
0.279795
0.323284
0.367411
0.412158
0.457508
0.503443
0.549943
0.596988
0.644558
0.692626
0.741169
0.790155
-0.0848467
-0.0459787
-0.00610284
0.0347486
0.0765417
0.119241
0.162809
0.207208
0.252399
0.29834
0.344992
0.392311
0.440257
0.488786
0.537856
0.587424
-0.0825005
-0.0432758
-0.00305894
0.0381179
0.0802212
0.123216
0.167065
0.211732
0.257177
0.303361
0.350244
0.397785
0.445942
0.494675
0.543941
0.593698
-0.0782013
-0.0386591
0.00185838
0.0433194
0.0856907
0.128938
0.173025
0.217915
0.263571
0.309954
0.357025
0.404744
0.45307
0.501964
0.551384
0.60129
-0.0719387
-0.0321191
0.00865796
0.0503611
0.0929578
0.136414
0.180695
0.225766
0.271589
0.318126
0.365341
0.413194
0.461647
0.51066
0.560193
0.610206
-0.06371
-0.0236537
0.0173414
0.0592444
0.102023
0.145646
0.190077
0.235284
0.28123
0.327879
0.375194
0.423139
0.471675
0.520765
0.57037
0.62045
-0.0535202
-0.0132681
0.0279032
0.0699636
0.112882
0.156627
0.201166
0.246465
0.292491
0.339208
0.386581
0.434575
0.483154
0.53228
0.581916
0.632023
-0.0413818
-0.00097498
0.0403309
0.0825067
0.125522
0.169348
0.213951
0.2593
0.305363
0.352106
0.399496
0.447498
0.496077
0.545199
0.594827
0.644923
-0.0273143
0.0132064
0.0546058
0.0968554
0.139927
0.18379
0.228416
0.273774
0.319832
0.366561
0.413926
0.461896
0.510438
0.559517
0.609098
0.659146
-0.0113444
0.0292503
0.0707026
0.112986
0.156072
0.199933
0.244541
0.289867
0.335882
0.382556
0.429858
0.477758
0.526224
0.575222
0.62472
0.674683
0.00649541
0.0471246
0.0885906
0.130867
0.173929
0.217749
0.262301
0.307557
0.35349
0.400072
0.447274
0.495067
0.54342
0.592303
0.641683
0.691525
0.0261663
0.0667921
0.108234
0.150467
0.193466
0.237208
0.281666
0.326816
0.372631
0.419086
0.466153
0.513804
0.562011
0.610745
0.659972
0.709662
0.0476246
0.0882104
0.129592
0.171745
0.214647
0.258275
0.302605
0.347614
0.393278
0.439572
0.48647
0.533948
0.581977
0.630529
0.679574
0.729079
0.0708217
0.111333
0.152619
0.194659
0.23743
0.280911
0.325081
0.369918
0.415399
0.461501
0.508202
0.555476
0.603297
0.651638
0.70047
0.749761
0.095705
0.136109
0.177269
0.219163
0.261772
0.305077
0.349057
0.393692
0.438962
0.484845
0.531319
0.578362
0.625948
0.674051
0.722643
0.771692
0.122219
0.162486
0.203489
0.24521
0.287629
0.33073
0.374493
0.4189
0.463932
0.509571
0.555794
0.60258
0.649907
0.697747
0.746073
0.794855
0.150305
0.190407
0.231227
0.272748
0.314953
0.357825
0.401347
0.445503
0.490276
0.535646
0.581596
0.628104
0.675148
0.722702
0.77074
0.819229
-0.0350145
0.00290433